title                                                                   
SP        RHF                                                         Aug-CC-pVDZ         
Number of atoms                            I               12
Info1-9                                    I   N=           9
          23          21           0           0           0         110
           1           1           2
Full Title                                 C   N=           1
title       
Route                                      C   N=           3
#p hf aug-cc-pvdz output=wfx        
Charge                                     I                0
Multiplicity                               I                1
Number of electrons                        I               42
Number of alpha electrons                  I               21
Number of beta electrons                   I               21
Number of basis functions                  I              192
Number of independent functions            I              192
Number of point charges in /Mol/           I                0
Number of translation vectors              I                0
Atomic numbers                             I   N=          12
           6           6           6           6           6           6
           1           1           1           1           1           1
Nuclear charges                            R   N=          12
  6.00000000E+00  6.00000000E+00  6.00000000E+00  6.00000000E+00  6.00000000E+00
  6.00000000E+00  1.00000000E+00  1.00000000E+00  1.00000000E+00  1.00000000E+00
  1.00000000E+00  1.00000000E+00
Current cartesian coordinates              R   N=          36
 -5.65156259E-16  2.63344107E+00  0.00000000E+00  2.28062687E+00  1.31672053E+00
  0.00000000E+00  2.28062687E+00 -1.31672053E+00  0.00000000E+00  2.42652742E-16
 -2.63344107E+00  0.00000000E+00 -2.28062687E+00 -1.31672053E+00  0.00000000E+00
 -2.28062687E+00  1.31672053E+00  0.00000000E+00 -1.00525527E-15  4.68415674E+00
  0.00000000E+00  4.05659873E+00  2.34207837E+00  0.00000000E+00  4.05659873E+00
 -2.34207837E+00  0.00000000E+00  4.31611510E-16 -4.68415674E+00  0.00000000E+00
 -4.05659873E+00 -2.34207837E+00  0.00000000E+00 -4.05659873E+00  2.34207837E+00
  0.00000000E+00
Number of symbols in /Mol/                 I                0
Force Field                                I                0
Atom Types                                 C   N=          12
                                                            
                                                            
                        
Int Atom Types                             I   N=          12
           0           0           0           0           0           0
           0           0           0           0           0           0
MM charges                                 R   N=          12
  0.00000000E+00  0.00000000E+00  0.00000000E+00  0.00000000E+00  0.00000000E+00
  0.00000000E+00  0.00000000E+00  0.00000000E+00  0.00000000E+00  0.00000000E+00
  0.00000000E+00  0.00000000E+00
Integer atomic weights                     I   N=          12
          12          12          12          12          12          12
           1           1           1           1           1           1
Real atomic weights                        R   N=          12
  1.20000000E+01  1.20000000E+01  1.20000000E+01  1.20000000E+01  1.20000000E+01
  1.20000000E+01  1.00782504E+00  1.00782504E+00  1.00782504E+00  1.00782504E+00
  1.00782504E+00  1.00782504E+00
Atom fragment info                         I   N=          12
           0           0           0           0           0           0
           0           0           0           0           0           0
Atom residue num                           I   N=          12
           0           0           0           0           0           0
           0           0           0           0           0           0
Nuclear spins                              I   N=          12
           0           0           0           0           0           0
           1           1           1           1           1           1
Nuclear ZEff                               R   N=          12
 -3.60000000E+00 -3.60000000E+00 -3.60000000E+00 -3.60000000E+00 -3.60000000E+00
 -3.60000000E+00 -1.00000000E+00 -1.00000000E+00 -1.00000000E+00 -1.00000000E+00
 -1.00000000E+00 -1.00000000E+00
Nuclear ZNuc                               R   N=          12
  6.00000000E+00  6.00000000E+00  6.00000000E+00  6.00000000E+00  6.00000000E+00
  6.00000000E+00  1.00000000E+00  1.00000000E+00  1.00000000E+00  1.00000000E+00
  1.00000000E+00  1.00000000E+00
Nuclear QMom                               R   N=          12
  0.00000000E+00  0.00000000E+00  0.00000000E+00  0.00000000E+00  0.00000000E+00
  0.00000000E+00  0.00000000E+00  0.00000000E+00  0.00000000E+00  0.00000000E+00
  0.00000000E+00  0.00000000E+00
Nuclear GFac                               R   N=          12
  0.00000000E+00  0.00000000E+00  0.00000000E+00  0.00000000E+00  0.00000000E+00
  0.00000000E+00  2.79284600E+00  2.79284600E+00  2.79284600E+00  2.79284600E+00
  2.79284600E+00  2.79284600E+00
MicOpt                                     I   N=          12
          -1          -1          -1          -1          -1          -1
          -1          -1          -1          -1          -1          -1
Number of residues                         I                0
Number of secondary structures             I                0
SymInf integers                            I   N=          26
           4           8           1           1           1          -1
          -1           1          -1           1          -1           1
          -1          -1          -1           1           1           1
          -1           1           1           1          -1          -1
          -1          -1
RotTr to input orientation                 R   N=          12
  1.00000000E+00  2.14607521E-16  0.00000000E+00 -2.14607521E-16  1.00000000E+00
  0.00000000E+00  0.00000000E+00  0.00000000E+00  1.00000000E+00  0.00000000E+00
  0.00000000E+00  0.00000000E+00
Number of contracted shells                I               84
Number of primitive shells                 I              180
Pure/Cartesian d shells                    I                0
Pure/Cartesian f shells                    I                0
Highest angular momentum                   I                2
Largest degree of contraction              I                7
Shell types                                I   N=          84
           0           0           0           0           1           1
           1          -2          -2           0           0           0
           0           1           1           1          -2          -2
           0           0           0           0           1           1
           1          -2          -2           0           0           0
           0           1           1           1          -2          -2
           0           0           0           0           1           1
           1          -2          -2           0           0           0
           0           1           1           1          -2          -2
           0           0           0           1           1           0
           0           0           1           1           0           0
           0           1           1           0           0           0
           1           1           0           0           0           1
           1           0           0           0           1           1
Number of primitives per shell             I   N=          84
           7           7           1           1           3           1
           1           1           1           7           7           1
           1           3           1           1           1           1
           7           7           1           1           3           1
           1           1           1           7           7           1
           1           3           1           1           1           1
           7           7           1           1           3           1
           1           1           1           7           7           1
           1           3           1           1           1           1
           3           1           1           1           1           3
           1           1           1           1           3           1
           1           1           1           3           1           1
           1           1           3           1           1           1
           1           3           1           1           1           1
Shell to atom map                          I   N=          84
           1           1           1           1           1           1
           1           1           1           2           2           2
           2           2           2           2           2           2
           3           3           3           3           3           3
           3           3           3           4           4           4
           4           4           4           4           4           4
           5           5           5           5           5           5
           5           5           5           6           6           6
           6           6           6           6           6           6
           7           7           7           7           7           8
           8           8           8           8           9           9
           9           9           9          10          10          10
          10          10          11          11          11          11
          11          12          12          12          12          12
Primitive exponents                        R   N=         180
  6.66500000E+03  1.00000000E+03  2.28000000E+02  6.47100000E+01  2.10600000E+01
  7.49500000E+00  2.79700000E+00  6.66500000E+03  2.28000000E+02  6.47100000E+01
  2.10600000E+01  7.49500000E+00  2.79700000E+00  5.21500000E-01  1.59600000E-01
  4.69000000E-02  9.43900000E+00  2.00200000E+00  5.45600000E-01  1.51700000E-01
  4.04100000E-02  5.50000000E-01  1.51000000E-01  6.66500000E+03  1.00000000E+03
  2.28000000E+02  6.47100000E+01  2.10600000E+01  7.49500000E+00  2.79700000E+00
  6.66500000E+03  2.28000000E+02  6.47100000E+01  2.10600000E+01  7.49500000E+00
  2.79700000E+00  5.21500000E-01  1.59600000E-01  4.69000000E-02  9.43900000E+00
  2.00200000E+00  5.45600000E-01  1.51700000E-01  4.04100000E-02  5.50000000E-01
  1.51000000E-01  6.66500000E+03  1.00000000E+03  2.28000000E+02  6.47100000E+01
  2.10600000E+01  7.49500000E+00  2.79700000E+00  6.66500000E+03  2.28000000E+02
  6.47100000E+01  2.10600000E+01  7.49500000E+00  2.79700000E+00  5.21500000E-01
  1.59600000E-01  4.69000000E-02  9.43900000E+00  2.00200000E+00  5.45600000E-01
  1.51700000E-01  4.04100000E-02  5.50000000E-01  1.51000000E-01  6.66500000E+03
  1.00000000E+03  2.28000000E+02  6.47100000E+01  2.10600000E+01  7.49500000E+00
  2.79700000E+00  6.66500000E+03  2.28000000E+02  6.47100000E+01  2.10600000E+01
  7.49500000E+00  2.79700000E+00  5.21500000E-01  1.59600000E-01  4.69000000E-02
  9.43900000E+00  2.00200000E+00  5.45600000E-01  1.51700000E-01  4.04100000E-02
  5.50000000E-01  1.51000000E-01  6.66500000E+03  1.00000000E+03  2.28000000E+02
  6.47100000E+01  2.10600000E+01  7.49500000E+00  2.79700000E+00  6.66500000E+03
  2.28000000E+02  6.47100000E+01  2.10600000E+01  7.49500000E+00  2.79700000E+00
  5.21500000E-01  1.59600000E-01  4.69000000E-02  9.43900000E+00  2.00200000E+00
  5.45600000E-01  1.51700000E-01  4.04100000E-02  5.50000000E-01  1.51000000E-01
  6.66500000E+03  1.00000000E+03  2.28000000E+02  6.47100000E+01  2.10600000E+01
  7.49500000E+00  2.79700000E+00  6.66500000E+03  2.28000000E+02  6.47100000E+01
  2.10600000E+01  7.49500000E+00  2.79700000E+00  5.21500000E-01  1.59600000E-01
  4.69000000E-02  9.43900000E+00  2.00200000E+00  5.45600000E-01  1.51700000E-01
  4.04100000E-02  5.50000000E-01  1.51000000E-01  1.30100000E+01  1.96200000E+00
  4.44600000E-01  1.22000000E-01  2.97400000E-02  7.27000000E-01  1.41000000E-01
  1.30100000E+01  1.96200000E+00  4.44600000E-01  1.22000000E-01  2.97400000E-02
  7.27000000E-01  1.41000000E-01  1.30100000E+01  1.96200000E+00  4.44600000E-01
  1.22000000E-01  2.97400000E-02  7.27000000E-01  1.41000000E-01  1.30100000E+01
  1.96200000E+00  4.44600000E-01  1.22000000E-01  2.97400000E-02  7.27000000E-01
  1.41000000E-01  1.30100000E+01  1.96200000E+00  4.44600000E-01  1.22000000E-01
  2.97400000E-02  7.27000000E-01  1.41000000E-01  1.30100000E+01  1.96200000E+00
  4.44600000E-01  1.22000000E-01  2.97400000E-02  7.27000000E-01  1.41000000E-01
Contraction coefficients                   R   N=         180
  6.93516317E-04  5.34150243E-03  2.71366714E-02  1.01992385E-01  2.75508636E-01
  4.51086433E-01  2.87565745E-01  7.73354740E-06  2.78072137E-04 -2.57875654E-03
 -8.95087684E-03 -1.06058855E-01 -1.31517686E-01  1.09948660E+00  1.00000000E+00
  1.00000000E+00  5.69792516E-02  3.13207212E-01  7.60376742E-01  1.00000000E+00
  1.00000000E+00  1.00000000E+00  1.00000000E+00  6.93516317E-04  5.34150243E-03
  2.71366714E-02  1.01992385E-01  2.75508636E-01  4.51086433E-01  2.87565745E-01
  7.73354740E-06  2.78072137E-04 -2.57875654E-03 -8.95087684E-03 -1.06058855E-01
 -1.31517686E-01  1.09948660E+00  1.00000000E+00  1.00000000E+00  5.69792516E-02
  3.13207212E-01  7.60376742E-01  1.00000000E+00  1.00000000E+00  1.00000000E+00
  1.00000000E+00  6.93516317E-04  5.34150243E-03  2.71366714E-02  1.01992385E-01
  2.75508636E-01  4.51086433E-01  2.87565745E-01  7.73354740E-06  2.78072137E-04
 -2.57875654E-03 -8.95087684E-03 -1.06058855E-01 -1.31517686E-01  1.09948660E+00
  1.00000000E+00  1.00000000E+00  5.69792516E-02  3.13207212E-01  7.60376742E-01
  1.00000000E+00  1.00000000E+00  1.00000000E+00  1.00000000E+00  6.93516317E-04
  5.34150243E-03  2.71366714E-02  1.01992385E-01  2.75508636E-01  4.51086433E-01
  2.87565745E-01  7.73354740E-06  2.78072137E-04 -2.57875654E-03 -8.95087684E-03
 -1.06058855E-01 -1.31517686E-01  1.09948660E+00  1.00000000E+00  1.00000000E+00
  5.69792516E-02  3.13207212E-01  7.60376742E-01  1.00000000E+00  1.00000000E+00
  1.00000000E+00  1.00000000E+00  6.93516317E-04  5.34150243E-03  2.71366714E-02
  1.01992385E-01  2.75508636E-01  4.51086433E-01  2.87565745E-01  7.73354740E-06
  2.78072137E-04 -2.57875654E-03 -8.95087684E-03 -1.06058855E-01 -1.31517686E-01
  1.09948660E+00  1.00000000E+00  1.00000000E+00  5.69792516E-02  3.13207212E-01
  7.60376742E-01  1.00000000E+00  1.00000000E+00  1.00000000E+00  1.00000000E+00
  6.93516317E-04  5.34150243E-03  2.71366714E-02  1.01992385E-01  2.75508636E-01
  4.51086433E-01  2.87565745E-01  7.73354740E-06  2.78072137E-04 -2.57875654E-03
 -8.95087684E-03 -1.06058855E-01 -1.31517686E-01  1.09948660E+00  1.00000000E+00
  1.00000000E+00  5.69792516E-02  3.13207212E-01  7.60376742E-01  1.00000000E+00
  1.00000000E+00  1.00000000E+00  1.00000000E+00  3.34987264E-02  2.34800801E-01
  8.13682958E-01  1.00000000E+00  1.00000000E+00  1.00000000E+00  1.00000000E+00
  3.34987264E-02  2.34800801E-01  8.13682958E-01  1.00000000E+00  1.00000000E+00
  1.00000000E+00  1.00000000E+00  3.34987264E-02  2.34800801E-01  8.13682958E-01
  1.00000000E+00  1.00000000E+00  1.00000000E+00  1.00000000E+00  3.34987264E-02
  2.34800801E-01  8.13682958E-01  1.00000000E+00  1.00000000E+00  1.00000000E+00
  1.00000000E+00  3.34987264E-02  2.34800801E-01  8.13682958E-01  1.00000000E+00
  1.00000000E+00  1.00000000E+00  1.00000000E+00  3.34987264E-02  2.34800801E-01
  8.13682958E-01  1.00000000E+00  1.00000000E+00  1.00000000E+00  1.00000000E+00
Coordinates of each shell                  R   N=         252
  0.00000000E+00  2.63344107E+00  0.00000000E+00  0.00000000E+00  2.63344107E+00
  0.00000000E+00  0.00000000E+00  2.63344107E+00  0.00000000E+00  0.00000000E+00
  2.63344107E+00  0.00000000E+00  0.00000000E+00  2.63344107E+00  0.00000000E+00
  0.00000000E+00  2.63344107E+00  0.00000000E+00  0.00000000E+00  2.63344107E+00
  0.00000000E+00  0.00000000E+00  2.63344107E+00  0.00000000E+00  0.00000000E+00
  2.63344107E+00  0.00000000E+00  2.28062687E+00  1.31672053E+00  0.00000000E+00
  2.28062687E+00  1.31672053E+00  0.00000000E+00  2.28062687E+00  1.31672053E+00
  0.00000000E+00  2.28062687E+00  1.31672053E+00  0.00000000E+00  2.28062687E+00
  1.31672053E+00  0.00000000E+00  2.28062687E+00  1.31672053E+00  0.00000000E+00
  2.28062687E+00  1.31672053E+00  0.00000000E+00  2.28062687E+00  1.31672053E+00
  0.00000000E+00  2.28062687E+00  1.31672053E+00  0.00000000E+00  2.28062687E+00
 -1.31672053E+00  0.00000000E+00  2.28062687E+00 -1.31672053E+00  0.00000000E+00
  2.28062687E+00 -1.31672053E+00  0.00000000E+00  2.28062687E+00 -1.31672053E+00
  0.00000000E+00  2.28062687E+00 -1.31672053E+00  0.00000000E+00  2.28062687E+00
 -1.31672053E+00  0.00000000E+00  2.28062687E+00 -1.31672053E+00  0.00000000E+00
  2.28062687E+00 -1.31672053E+00  0.00000000E+00  2.28062687E+00 -1.31672053E+00
  0.00000000E+00 -3.22503518E-16 -2.63344107E+00  0.00000000E+00 -3.22503518E-16
 -2.63344107E+00  0.00000000E+00 -3.22503518E-16 -2.63344107E+00  0.00000000E+00
 -3.22503518E-16 -2.63344107E+00  0.00000000E+00 -3.22503518E-16 -2.63344107E+00
  0.00000000E+00 -3.22503518E-16 -2.63344107E+00  0.00000000E+00 -3.22503518E-16
 -2.63344107E+00  0.00000000E+00 -3.22503518E-16 -2.63344107E+00  0.00000000E+00
 -3.22503518E-16 -2.63344107E+00  0.00000000E+00 -2.28062687E+00 -1.31672053E+00
  0.00000000E+00 -2.28062687E+00 -1.31672053E+00  0.00000000E+00 -2.28062687E+00
 -1.31672053E+00  0.00000000E+00 -2.28062687E+00 -1.31672053E+00  0.00000000E+00
 -2.28062687E+00 -1.31672053E+00  0.00000000E+00 -2.28062687E+00 -1.31672053E+00
  0.00000000E+00 -2.28062687E+00 -1.31672053E+00  0.00000000E+00 -2.28062687E+00
 -1.31672053E+00  0.00000000E+00 -2.28062687E+00 -1.31672053E+00  0.00000000E+00
 -2.28062687E+00  1.31672053E+00  0.00000000E+00 -2.28062687E+00  1.31672053E+00
  0.00000000E+00 -2.28062687E+00  1.31672053E+00  0.00000000E+00 -2.28062687E+00
  1.31672053E+00  0.00000000E+00 -2.28062687E+00  1.31672053E+00  0.00000000E+00
 -2.28062687E+00  1.31672053E+00  0.00000000E+00 -2.28062687E+00  1.31672053E+00
  0.00000000E+00 -2.28062687E+00  1.31672053E+00  0.00000000E+00 -2.28062687E+00
  1.31672053E+00  0.00000000E+00  0.00000000E+00  4.68415674E+00  0.00000000E+00
  0.00000000E+00  4.68415674E+00  0.00000000E+00  0.00000000E+00  4.68415674E+00
  0.00000000E+00  0.00000000E+00  4.68415674E+00  0.00000000E+00  0.00000000E+00
  4.68415674E+00  0.00000000E+00  4.05659873E+00  2.34207837E+00  0.00000000E+00
  4.05659873E+00  2.34207837E+00  0.00000000E+00  4.05659873E+00  2.34207837E+00
  0.00000000E+00  4.05659873E+00  2.34207837E+00  0.00000000E+00  4.05659873E+00
  2.34207837E+00  0.00000000E+00  4.05659873E+00 -2.34207837E+00  0.00000000E+00
  4.05659873E+00 -2.34207837E+00  0.00000000E+00  4.05659873E+00 -2.34207837E+00
  0.00000000E+00  4.05659873E+00 -2.34207837E+00  0.00000000E+00  4.05659873E+00
 -2.34207837E+00  0.00000000E+00 -5.73643756E-16 -4.68415674E+00  0.00000000E+00
 -5.73643756E-16 -4.68415674E+00  0.00000000E+00 -5.73643756E-16 -4.68415674E+00
  0.00000000E+00 -5.73643756E-16 -4.68415674E+00  0.00000000E+00 -5.73643756E-16
 -4.68415674E+00  0.00000000E+00 -4.05659873E+00 -2.34207837E+00  0.00000000E+00
 -4.05659873E+00 -2.34207837E+00  0.00000000E+00 -4.05659873E+00 -2.34207837E+00
  0.00000000E+00 -4.05659873E+00 -2.34207837E+00  0.00000000E+00 -4.05659873E+00
 -2.34207837E+00  0.00000000E+00 -4.05659873E+00  2.34207837E+00  0.00000000E+00
 -4.05659873E+00  2.34207837E+00  0.00000000E+00 -4.05659873E+00  2.34207837E+00
  0.00000000E+00 -4.05659873E+00  2.34207837E+00  0.00000000E+00 -4.05659873E+00
  2.34207837E+00  0.00000000E+00
Num ILSW                                   I              100
ILSW                                       I   N=         100
           0           0           0           0           2           0
           0           0           0           0           0          -1
           5           0           0           0           0           0
           0           0           0           0           0           0
           1           0           0           0           0           0
           0           0      100000           0          -1           0
           0           0           0           0           0           0
           0           0           0           1           0           0
           0 -2000000000           1           0           0           0
           0           0           4          52           0           0
           0           0           0           0           0           0
           0           0           0          12           0           1
           0           0           0           0           0           0
           0           0           0           0           0           0
           0           0           0           0           0           0
           0           0           0           0           0           0
           0           0           0           0
Num RLSW                                   I               52
RLSW                                       R   N=          52
  1.00000000E+00  1.00000000E+00  1.00000000E+00  1.00000000E+00  1.00000000E+00
  0.00000000E+00  0.00000000E+00  1.00000000E+00  0.00000000E+00  0.00000000E+00
  0.00000000E+00  0.00000000E+00  1.00000000E+00  0.00000000E+00  0.00000000E+00
  0.00000000E+00  0.00000000E+00  1.00000000E+00  0.00000000E+00  0.00000000E+00
  0.00000000E+00  0.00000000E+00  1.00000000E+00  0.00000000E+00  0.00000000E+00
  0.00000000E+00  0.00000000E+00  1.00000000E+00  0.00000000E+00  0.00000000E+00
  0.00000000E+00  0.00000000E+00  1.00000000E+00  0.00000000E+00  0.00000000E+00
  0.00000000E+00  0.00000000E+00  0.00000000E+00  1.00000000E+00  1.00000000E+00
  0.00000000E+00  1.00000000E+00  0.00000000E+00  0.00000000E+00  0.00000000E+00
  0.00000000E+00  0.00000000E+00  0.00000000E+00  0.00000000E+00  0.00000000E+00
  0.00000000E+00  0.00000000E+00
MxBond                                     I                3
NBond                                      I   N=          12
           3           3           3           3           3           3
           1           1           1           1           1           1
IBond                                      I   N=          36
           2           6           7           1           3           8
           2           4           9           3           5          10
           4           6          11           1           5          12
           1           0           0           2           0           0
           3           0           0           4           0           0
           5           0           0           6           0           0
RBond                                      R   N=          36
  1.50000000E+00  1.50000000E+00  1.00000000E+00  1.50000000E+00  1.50000000E+00
  1.00000000E+00  1.50000000E+00  1.50000000E+00  1.00000000E+00  1.50000000E+00
  1.50000000E+00  1.00000000E+00  1.50000000E+00  1.50000000E+00  1.00000000E+00
  1.50000000E+00  1.50000000E+00  1.00000000E+00  1.00000000E+00  0.00000000E+00
  0.00000000E+00  1.00000000E+00  0.00000000E+00  0.00000000E+00  1.00000000E+00
  0.00000000E+00  0.00000000E+00  1.00000000E+00  0.00000000E+00  0.00000000E+00
  1.00000000E+00  0.00000000E+00  0.00000000E+00  1.00000000E+00  0.00000000E+00
  0.00000000E+00
Virial Ratio                               R      2.000850800094977E+00
SCF Energy                                 R     -2.307281806560687E+02
Total Energy                               R     -2.307281806560687E+02
RMS Density                                R      6.217984598570930E-09
Job Status                                 I                1
Nuclear derivative order                   I                0
External E-field                           R   N=          35
  0.00000000E+00  0.00000000E+00  0.00000000E+00  0.00000000E+00  0.00000000E+00
  0.00000000E+00  0.00000000E+00  0.00000000E+00  0.00000000E+00  0.00000000E+00
  0.00000000E+00  0.00000000E+00  0.00000000E+00  0.00000000E+00  0.00000000E+00
  0.00000000E+00  0.00000000E+00  0.00000000E+00  0.00000000E+00  0.00000000E+00
  0.00000000E+00  0.00000000E+00  0.00000000E+00  0.00000000E+00  0.00000000E+00
  0.00000000E+00  0.00000000E+00  0.00000000E+00  0.00000000E+00  0.00000000E+00
  0.00000000E+00  0.00000000E+00  0.00000000E+00  0.00000000E+00  0.00000000E+00
IOpCl                                      I                0
IROHF                                      I                0
Alpha Orbital Energies                     R   N=         192
 -1.12426733E+01 -1.12421129E+01 -1.12421129E+01 -1.12408932E+01 -1.12408932E+01
 -1.12402983E+01 -1.15336526E+00 -1.01722446E+00 -1.01722446E+00 -8.25334872E-01
 -8.25334872E-01 -7.09680597E-01 -6.43403654E-01 -6.20160907E-01 -5.88063356E-01
 -5.88063356E-01 -5.02131449E-01 -4.94333600E-01 -4.94333600E-01 -3.36638929E-01
 -3.36638929E-01  3.59734206E-02  4.25372933E-02  4.25372933E-02  5.74853170E-02
  5.74853170E-02  7.62560243E-02  1.07687282E-01  1.07687282E-01  1.22718480E-01
  1.43127968E-01  1.43127968E-01  1.45985675E-01  1.47958367E-01  1.47958367E-01
  1.48892320E-01  1.53477114E-01  1.53477114E-01  1.67746309E-01  1.67746309E-01
  1.68480174E-01  1.85110474E-01  1.90924284E-01  1.90924284E-01  1.92451259E-01
  1.99068024E-01  1.99068024E-01  2.66694698E-01  3.02099252E-01  3.02099252E-01
  3.13426898E-01  3.13426898E-01  3.26415287E-01  3.38175711E-01  3.47999661E-01
  3.56609347E-01  3.56609347E-01  3.66697866E-01  3.79560393E-01  3.79560393E-01
  3.87095594E-01  4.11792320E-01  4.27742606E-01  4.27742606E-01  4.30867591E-01
  4.30867591E-01  4.42541208E-01  4.42541208E-01  5.04514759E-01  5.05003032E-01
  5.05003032E-01  5.64828028E-01  5.72321582E-01  5.75149824E-01  5.75149824E-01
  5.91695186E-01  5.91695186E-01  5.94670868E-01  5.98197444E-01  6.10894570E-01
  6.18645430E-01  6.63240649E-01  6.63240649E-01  6.88796173E-01  6.88796173E-01
  6.92068452E-01  6.92819325E-01  6.92819325E-01  6.92968516E-01  6.92968517E-01
  7.58489194E-01  7.58489194E-01  7.63869473E-01  7.73715618E-01  7.78364514E-01
  7.78364514E-01  8.38489434E-01  8.55530128E-01  8.55530128E-01  8.58823839E-01
  8.89609771E-01  8.89609771E-01  9.23402453E-01  9.23402453E-01  9.27061339E-01
  9.27061339E-01  9.60928147E-01  9.74343041E-01  9.74343041E-01  9.78778632E-01
  9.78778632E-01  1.00612400E+00  1.01406887E+00  1.06734638E+00  1.07928017E+00
  1.09883338E+00  1.09883338E+00  1.18095484E+00  1.18095484E+00  1.19823991E+00
  1.34487257E+00  1.34487257E+00  1.42172353E+00  1.48497649E+00  1.50212673E+00
  1.53424552E+00  1.53424552E+00  1.53782900E+00  1.53782900E+00  1.55290926E+00
  1.58231311E+00  1.61064961E+00  1.62381809E+00  1.62381809E+00  1.63859506E+00
  1.63859506E+00  1.64292364E+00  1.70893762E+00  1.70893762E+00  1.71340776E+00
  1.71340776E+00  1.78969601E+00  1.78969601E+00  1.79055246E+00  1.83037650E+00
  1.89478903E+00  1.89478903E+00  1.90858878E+00  1.93296723E+00  1.95164115E+00
  1.95164115E+00  1.96993317E+00  1.96993317E+00  1.98608013E+00  1.99175837E+00
  2.08848917E+00  2.10363343E+00  2.10363343E+00  2.12209103E+00  2.12209103E+00
  2.20289680E+00  2.20289680E+00  2.22027781E+00  2.22027781E+00  2.26501841E+00
  2.26501841E+00  2.29350917E+00  2.36223082E+00  2.37169239E+00  2.37169239E+00
  2.39728887E+00  2.45138253E+00  2.45138253E+00  2.62207695E+00  2.67819984E+00
  2.78662285E+00  2.78662285E+00  2.78926322E+00  2.78926322E+00  2.79462708E+00
  2.96717724E+00  2.96717724E+00  2.97491578E+00  3.14238048E+00  3.14238048E+00
  3.15418860E+00  3.15418860E+00  3.38344677E+00  3.56131559E+00  3.56131559E+00
  3.88073521E+00  4.81172546E+00
Alpha MO coefficients                      R   N=       36864
  4.07103619E-01  8.28580913E-03 -7.17640146E-03 -2.61145317E-03  0.00000000E+00
  7.60489969E-05  0.00000000E+00  0.00000000E+00 -2.41158986E-03  0.00000000E+00
  0.00000000E+00 -8.99471279E-04  0.00000000E+00 -2.28250558E-04  0.00000000E+00
  0.00000000E+00 -5.45791656E-05  0.00000000E+00  7.71057936E-04  0.00000000E+00
  0.00000000E+00  2.64667725E-05  0.00000000E+00  4.07103619E-01  8.28580913E-03
 -7.17640146E-03 -2.61145316E-03  6.58603632E-05  3.80244984E-05  0.00000000E+00
 -2.08849808E-03 -1.20579493E-03  0.00000000E+00 -7.78964980E-04 -4.49735640E-04
  0.00000000E+00 -2.28250558E-04  0.00000000E+00  0.00000000E+00  2.72895828E-05
  4.72669439E-05  7.71057936E-04  0.00000000E+00  0.00000000E+00 -1.32333862E-05
 -2.29208973E-05  4.07103619E-01  8.28580913E-03 -7.17640146E-03 -2.61145316E-03
  6.58603632E-05 -3.80244984E-05  0.00000000E+00 -2.08849808E-03  1.20579493E-03
  0.00000000E+00 -7.78964980E-04  4.49735640E-04  0.00000000E+00 -2.28250558E-04
  0.00000000E+00  0.00000000E+00  2.72895828E-05 -4.72669439E-05  7.71057936E-04
  0.00000000E+00  0.00000000E+00 -1.32333862E-05  2.29208973E-05  4.07103619E-01
  8.28580913E-03 -7.17640146E-03 -2.61145317E-03  0.00000000E+00 -7.60489969E-05
  0.00000000E+00  0.00000000E+00  2.41158986E-03  0.00000000E+00  0.00000000E+00
  8.99471279E-04  0.00000000E+00 -2.28250558E-04  0.00000000E+00  0.00000000E+00
 -5.45791656E-05  0.00000000E+00  7.71057936E-04  0.00000000E+00  0.00000000E+00
  2.64667725E-05  0.00000000E+00  4.07103619E-01  8.28580913E-03 -7.17640146E-03
 -2.61145316E-03 -6.58603632E-05 -3.80244984E-05  0.00000000E+00  2.08849808E-03
  1.20579493E-03  0.00000000E+00  7.78964980E-04  4.49735640E-04  0.00000000E+00
 -2.28250558E-04  0.00000000E+00  0.00000000E+00  2.72895828E-05  4.72669439E-05
  7.71057936E-04  0.00000000E+00  0.00000000E+00 -1.32333862E-05 -2.29208973E-05
  4.07103619E-01  8.28580913E-03 -7.17640146E-03 -2.61145316E-03 -6.58603632E-05
  3.80244984E-05  0.00000000E+00  2.08849808E-03 -1.20579493E-03  0.00000000E+00