title                                                                   
SP        RHF                                                         6-31G(d)            
Number of atoms                            I               12
Info1-9                                    I   N=           9
          23          21           0           0           0         110
           1           1           2
Full Title                                 C   N=           1
title       
Route                                      C   N=           2
#p hf 6-31G* output=wfx 
Charge                                     I                0
Multiplicity                               I                1
Number of electrons                        I               42
Number of alpha electrons                  I               21
Number of beta electrons                   I               21
Number of basis functions                  I              102
Number of independent functions            I              102
Number of point charges in /Mol/           I                0
Number of translation vectors              I                0
Atomic numbers                             I   N=          12
           6           6           6           6           6           6
           1           1           1           1           1           1
Nuclear charges                            R   N=          12
  6.00000000E+00  6.00000000E+00  6.00000000E+00  6.00000000E+00  6.00000000E+00
  6.00000000E+00  1.00000000E+00  1.00000000E+00  1.00000000E+00  1.00000000E+00
  1.00000000E+00  1.00000000E+00
Current cartesian coordinates              R   N=          36
 -5.65156259E-16  2.63344107E+00  0.00000000E+00  2.28062687E+00  1.31672053E+00
  0.00000000E+00  2.28062687E+00 -1.31672053E+00  0.00000000E+00  2.42652742E-16
 -2.63344107E+00  0.00000000E+00 -2.28062687E+00 -1.31672053E+00  0.00000000E+00
 -2.28062687E+00  1.31672053E+00  0.00000000E+00 -1.00525527E-15  4.68415674E+00
  0.00000000E+00  4.05659873E+00  2.34207837E+00  0.00000000E+00  4.05659873E+00
 -2.34207837E+00  0.00000000E+00  4.31611510E-16 -4.68415674E+00  0.00000000E+00
 -4.05659873E+00 -2.34207837E+00  0.00000000E+00 -4.05659873E+00  2.34207837E+00
  0.00000000E+00
Number of symbols in /Mol/                 I                0
Force Field                                I                0
Atom Types                                 C   N=          12
                                                            
                                                            
                        
Int Atom Types                             I   N=          12
           0           0           0           0           0           0
           0           0           0           0           0           0
MM charges                                 R   N=          12
  0.00000000E+00  0.00000000E+00  0.00000000E+00  0.00000000E+00  0.00000000E+00
  0.00000000E+00  0.00000000E+00  0.00000000E+00  0.00000000E+00  0.00000000E+00
  0.00000000E+00  0.00000000E+00
Integer atomic weights                     I   N=          12
          12          12          12          12          12          12
           1           1           1           1           1           1
Real atomic weights                        R   N=          12
  1.20000000E+01  1.20000000E+01  1.20000000E+01  1.20000000E+01  1.20000000E+01
  1.20000000E+01  1.00782504E+00  1.00782504E+00  1.00782504E+00  1.00782504E+00
  1.00782504E+00  1.00782504E+00
Atom fragment info                         I   N=          12
           0           0           0           0           0           0
           0           0           0           0           0           0
Atom residue num                           I   N=          12
           0           0           0           0           0           0
           0           0           0           0           0           0
Nuclear spins                              I   N=          12
           0           0           0           0           0           0
           1           1           1           1           1           1
Nuclear ZEff                               R   N=          12
 -3.60000000E+00 -3.60000000E+00 -3.60000000E+00 -3.60000000E+00 -3.60000000E+00
 -3.60000000E+00 -1.00000000E+00 -1.00000000E+00 -1.00000000E+00 -1.00000000E+00
 -1.00000000E+00 -1.00000000E+00
Nuclear ZNuc                               R   N=          12
  6.00000000E+00  6.00000000E+00  6.00000000E+00  6.00000000E+00  6.00000000E+00
  6.00000000E+00  1.00000000E+00  1.00000000E+00  1.00000000E+00  1.00000000E+00
  1.00000000E+00  1.00000000E+00
Nuclear QMom                               R   N=          12
  0.00000000E+00  0.00000000E+00  0.00000000E+00  0.00000000E+00  0.00000000E+00
  0.00000000E+00  0.00000000E+00  0.00000000E+00  0.00000000E+00  0.00000000E+00
  0.00000000E+00  0.00000000E+00
Nuclear GFac                               R   N=          12
  0.00000000E+00  0.00000000E+00  0.00000000E+00  0.00000000E+00  0.00000000E+00
  0.00000000E+00  2.79284600E+00  2.79284600E+00  2.79284600E+00  2.79284600E+00
  2.79284600E+00  2.79284600E+00
MicOpt                                     I   N=          12
          -1          -1          -1          -1          -1          -1
          -1          -1          -1          -1          -1          -1
Number of residues                         I                0
Number of secondary structures             I                0
SymInf integers                            I   N=          26
           4           8           1           1           1          -1
          -1           1          -1           1          -1           1
          -1          -1          -1           1           1           1
          -1           1           1           1          -1          -1
          -1          -1
RotTr to input orientation                 R   N=          12
  1.00000000E+00  2.14607521E-16  0.00000000E+00 -2.14607521E-16  1.00000000E+00
  0.00000000E+00  0.00000000E+00  0.00000000E+00  1.00000000E+00  0.00000000E+00
  0.00000000E+00  0.00000000E+00
Number of contracted shells                I               36
Number of primitive shells                 I               90
Pure/Cartesian d shells                    I                1
Pure/Cartesian f shells                    I                0
Highest angular momentum                   I                2
Largest degree of contraction              I                6
Shell types                                I   N=          36
           0          -1          -1           2           0          -1
          -1           2           0          -1          -1           2
           0          -1          -1           2           0          -1
          -1           2           0          -1          -1           2
           0           0           0           0           0           0
           0           0           0           0           0           0
Number of primitives per shell             I   N=          36
           6           3           1           1           6           3
           1           1           6           3           1           1
           6           3           1           1           6           3
           1           1           6           3           1           1
           3           1           3           1           3           1
           3           1           3           1           3           1
Shell to atom map                          I   N=          36
           1           1           1           1           2           2
           2           2           3           3           3           3
           4           4           4           4           5           5
           5           5           6           6           6           6
           7           7           8           8           9           9
          10          10          11          11          12          12
Primitive exponents                        R   N=          90
  3.04752488E+03  4.57369518E+02  1.03948685E+02  2.92101553E+01  9.28666296E+00
  3.16392696E+00  7.86827235E+00  1.88128854E+00  5.44249258E-01  1.68714478E-01
  8.00000000E-01  3.04752488E+03  4.57369518E+02  1.03948685E+02  2.92101553E+01
  9.28666296E+00  3.16392696E+00  7.86827235E+00  1.88128854E+00  5.44249258E-01
  1.68714478E-01  8.00000000E-01  3.04752488E+03  4.57369518E+02  1.03948685E+02
  2.92101553E+01  9.28666296E+00  3.16392696E+00  7.86827235E+00  1.88128854E+00
  5.44249258E-01  1.68714478E-01  8.00000000E-01  3.04752488E+03  4.57369518E+02
  1.03948685E+02  2.92101553E+01  9.28666296E+00  3.16392696E+00  7.86827235E+00
  1.88128854E+00  5.44249258E-01  1.68714478E-01  8.00000000E-01  3.04752488E+03
  4.57369518E+02  1.03948685E+02  2.92101553E+01  9.28666296E+00  3.16392696E+00
  7.86827235E+00  1.88128854E+00  5.44249258E-01  1.68714478E-01  8.00000000E-01
  3.04752488E+03  4.57369518E+02  1.03948685E+02  2.92101553E+01  9.28666296E+00
  3.16392696E+00  7.86827235E+00  1.88128854E+00  5.44249258E-01  1.68714478E-01
  8.00000000E-01  1.87311370E+01  2.82539436E+00  6.40121692E-01  1.61277759E-01
  1.87311370E+01  2.82539436E+00  6.40121692E-01  1.61277759E-01  1.87311370E+01
  2.82539436E+00  6.40121692E-01  1.61277759E-01  1.87311370E+01  2.82539436E+00
  6.40121692E-01  1.61277759E-01  1.87311370E+01  2.82539436E+00  6.40121692E-01
  1.61277759E-01  1.87311370E+01  2.82539436E+00  6.40121692E-01  1.61277759E-01
Contraction coefficients                   R   N=          90
  1.83473713E-03  1.40373228E-02  6.88426223E-02  2.32184443E-01  4.67941348E-01
  3.62311985E-01 -1.19332420E-01 -1.60854152E-01  1.14345644E+00  1.00000000E+00
  1.00000000E+00  1.83473713E-03  1.40373228E-02  6.88426223E-02  2.32184443E-01
  4.67941348E-01  3.62311985E-01 -1.19332420E-01 -1.60854152E-01  1.14345644E+00
  1.00000000E+00  1.00000000E+00  1.83473713E-03  1.40373228E-02  6.88426223E-02
  2.32184443E-01  4.67941348E-01  3.62311985E-01 -1.19332420E-01 -1.60854152E-01
  1.14345644E+00  1.00000000E+00  1.00000000E+00  1.83473713E-03  1.40373228E-02
  6.88426223E-02  2.32184443E-01  4.67941348E-01  3.62311985E-01 -1.19332420E-01
 -1.60854152E-01  1.14345644E+00  1.00000000E+00  1.00000000E+00  1.83473713E-03
  1.40373228E-02  6.88426223E-02  2.32184443E-01  4.67941348E-01  3.62311985E-01
 -1.19332420E-01 -1.60854152E-01  1.14345644E+00  1.00000000E+00  1.00000000E+00
  1.83473713E-03  1.40373228E-02  6.88426223E-02  2.32184443E-01  4.67941348E-01
  3.62311985E-01 -1.19332420E-01 -1.60854152E-01  1.14345644E+00  1.00000000E+00
  1.00000000E+00  3.34946043E-02  2.34726953E-01  8.13757326E-01  1.00000000E+00
  3.34946043E-02  2.34726953E-01  8.13757326E-01  1.00000000E+00  3.34946043E-02
  2.34726953E-01  8.13757326E-01  1.00000000E+00  3.34946043E-02  2.34726953E-01
  8.13757326E-01  1.00000000E+00  3.34946043E-02  2.34726953E-01  8.13757326E-01
  1.00000000E+00  3.34946043E-02  2.34726953E-01  8.13757326E-01  1.00000000E+00
P(S=P) Contraction coefficients            R   N=          90
  0.00000000E+00  0.00000000E+00  0.00000000E+00  0.00000000E+00  0.00000000E+00
  0.00000000E+00  6.89990666E-02  3.16423961E-01  7.44308291E-01  1.00000000E+00
  0.00000000E+00  0.00000000E+00  0.00000000E+00  0.00000000E+00  0.00000000E+00
  0.00000000E+00  0.00000000E+00  6.89990666E-02  3.16423961E-01  7.44308291E-01
  1.00000000E+00  0.00000000E+00  0.00000000E+00  0.00000000E+00  0.00000000E+00
  0.00000000E+00  0.00000000E+00  0.00000000E+00  6.89990666E-02  3.16423961E-01
  7.44308291E-01  1.00000000E+00  0.00000000E+00  0.00000000E+00  0.00000000E+00
  0.00000000E+00  0.00000000E+00  0.00000000E+00  0.00000000E+00  6.89990666E-02
  3.16423961E-01  7.44308291E-01  1.00000000E+00  0.00000000E+00  0.00000000E+00
  0.00000000E+00  0.00000000E+00  0.00000000E+00  0.00000000E+00  0.00000000E+00
  6.89990666E-02  3.16423961E-01  7.44308291E-01  1.00000000E+00  0.00000000E+00
  0.00000000E+00  0.00000000E+00  0.00000000E+00  0.00000000E+00  0.00000000E+00
  0.00000000E+00  6.89990666E-02  3.16423961E-01  7.44308291E-01  1.00000000E+00
  0.00000000E+00  0.00000000E+00  0.00000000E+00  0.00000000E+00  0.00000000E+00
  0.00000000E+00  0.00000000E+00  0.00000000E+00  0.00000000E+00  0.00000000E+00
  0.00000000E+00  0.00000000E+00  0.00000000E+00  0.00000000E+00  0.00000000E+00
  0.00000000E+00  0.00000000E+00  0.00000000E+00  0.00000000E+00  0.00000000E+00
  0.00000000E+00  0.00000000E+00  0.00000000E+00  0.00000000E+00  0.00000000E+00
Coordinates of each shell                  R   N=         108
  0.00000000E+00  2.63344107E+00  0.00000000E+00  0.00000000E+00  2.63344107E+00
  0.00000000E+00  0.00000000E+00  2.63344107E+00  0.00000000E+00  0.00000000E+00
  2.63344107E+00  0.00000000E+00  2.28062687E+00  1.31672053E+00  0.00000000E+00
  2.28062687E+00  1.31672053E+00  0.00000000E+00  2.28062687E+00  1.31672053E+00
  0.00000000E+00  2.28062687E+00  1.31672053E+00  0.00000000E+00  2.28062687E+00
 -1.31672053E+00  0.00000000E+00  2.28062687E+00 -1.31672053E+00  0.00000000E+00
  2.28062687E+00 -1.31672053E+00  0.00000000E+00  2.28062687E+00 -1.31672053E+00
  0.00000000E+00 -3.22503518E-16 -2.63344107E+00  0.00000000E+00 -3.22503518E-16
 -2.63344107E+00  0.00000000E+00 -3.22503518E-16 -2.63344107E+00  0.00000000E+00
 -3.22503518E-16 -2.63344107E+00  0.00000000E+00 -2.28062687E+00 -1.31672053E+00
  0.00000000E+00 -2.28062687E+00 -1.31672053E+00  0.00000000E+00 -2.28062687E+00
 -1.31672053E+00  0.00000000E+00 -2.28062687E+00 -1.31672053E+00  0.00000000E+00
 -2.28062687E+00  1.31672053E+00  0.00000000E+00 -2.28062687E+00  1.31672053E+00
  0.00000000E+00 -2.28062687E+00  1.31672053E+00  0.00000000E+00 -2.28062687E+00
  1.31672053E+00  0.00000000E+00  0.00000000E+00  4.68415674E+00  0.00000000E+00
  0.00000000E+00  4.68415674E+00  0.00000000E+00  4.05659873E+00  2.34207837E+00
  0.00000000E+00  4.05659873E+00  2.34207837E+00  0.00000000E+00  4.05659873E+00
 -2.34207837E+00  0.00000000E+00  4.05659873E+00 -2.34207837E+00  0.00000000E+00
 -5.73643756E-16 -4.68415674E+00  0.00000000E+00 -5.73643756E-16 -4.68415674E+00
  0.00000000E+00 -4.05659873E+00 -2.34207837E+00  0.00000000E+00 -4.05659873E+00
 -2.34207837E+00  0.00000000E+00 -4.05659873E+00  2.34207837E+00  0.00000000E+00
 -4.05659873E+00  2.34207837E+00  0.00000000E+00
Num ILSW                                   I              100
ILSW                                       I   N=         100
           0           1           0           0           2           0
           0           0           0           0           0          -1
           5           0           0           0           0           0
           0           0           0           0           0           0
           1           0           0           0           0           0
           0           0      100000           0          -1           0
           0           0           0           0           0           0
           0           0           0           1           0           0
           0 -2000000000           1           0           0           0
           0           0           4          52           0           0
           0           0           0           0           0           0
           0           0           0          12           0           1
           0           0           0           0           0           0
           0           0           0           0           0           0
           0           0           0           0           0           0
           0           0           0           0           0           0
           0           0           0           0
Num RLSW                                   I               52
RLSW                                       R   N=          52
  1.00000000E+00  1.00000000E+00  1.00000000E+00  1.00000000E+00  1.00000000E+00
  0.00000000E+00  0.00000000E+00  1.00000000E+00  0.00000000E+00  0.00000000E+00
  0.00000000E+00  0.00000000E+00  1.00000000E+00  0.00000000E+00  0.00000000E+00
  0.00000000E+00  0.00000000E+00  1.00000000E+00  0.00000000E+00  0.00000000E+00
  0.00000000E+00  0.00000000E+00  1.00000000E+00  0.00000000E+00  0.00000000E+00
  0.00000000E+00  0.00000000E+00  1.00000000E+00  0.00000000E+00  0.00000000E+00
  0.00000000E+00  0.00000000E+00  1.00000000E+00  0.00000000E+00  0.00000000E+00
  0.00000000E+00  0.00000000E+00  0.00000000E+00  1.00000000E+00  1.00000000E+00
  0.00000000E+00  1.00000000E+00  0.00000000E+00  0.00000000E+00  0.00000000E+00
  0.00000000E+00  0.00000000E+00  0.00000000E+00  0.00000000E+00  0.00000000E+00
  0.00000000E+00  0.00000000E+00
MxBond                                     I                3
NBond                                      I   N=          12
           3           3           3           3           3           3
           1           1           1           1           1           1
IBond                                      I   N=          36
           2           6           7           1           3           8
           2           4           9           3           5          10
           4           6          11           1           5          12
           1           0           0           2           0           0
           3           0           0           4           0           0
           5           0           0           6           0           0
RBond                                      R   N=          36
  1.50000000E+00  1.50000000E+00  1.00000000E+00  1.50000000E+00  1.50000000E+00
  1.00000000E+00  1.50000000E+00  1.50000000E+00  1.00000000E+00  1.50000000E+00
  1.50000000E+00  1.00000000E+00  1.50000000E+00  1.50000000E+00  1.00000000E+00
  1.50000000E+00  1.50000000E+00  1.00000000E+00  1.00000000E+00  0.00000000E+00
  0.00000000E+00  1.00000000E+00  0.00000000E+00  0.00000000E+00  1.00000000E+00
  0.00000000E+00  0.00000000E+00  1.00000000E+00  0.00000000E+00  0.00000000E+00
  1.00000000E+00  0.00000000E+00  0.00000000E+00  1.00000000E+00  0.00000000E+00
  0.00000000E+00
Virial Ratio                               R      2.001751619302865E+00
SCF Energy                                 R     -2.307023956979137E+02
Total Energy                               R     -2.307023956979137E+02
RMS Density                                R      1.422440668454057E-09
Job Status                                 I                1
Nuclear derivative order                   I                0
External E-field                           R   N=          35
  0.00000000E+00  0.00000000E+00  0.00000000E+00  0.00000000E+00  0.00000000E+00
  0.00000000E+00  0.00000000E+00  0.00000000E+00  0.00000000E+00  0.00000000E+00
  0.00000000E+00  0.00000000E+00  0.00000000E+00  0.00000000E+00  0.00000000E+00
  0.00000000E+00  0.00000000E+00  0.00000000E+00  0.00000000E+00  0.00000000E+00
  0.00000000E+00  0.00000000E+00  0.00000000E+00  0.00000000E+00  0.00000000E+00
  0.00000000E+00  0.00000000E+00  0.00000000E+00  0.00000000E+00  0.00000000E+00
  0.00000000E+00  0.00000000E+00  0.00000000E+00  0.00000000E+00  0.00000000E+00
IOpCl                                      I                0
IROHF                                      I                0
Alpha Orbital Energies                     R   N=         102
 -1.12331888E+01 -1.12326288E+01 -1.12326288E+01 -1.12314246E+01 -1.12314246E+01
 -1.12308426E+01 -1.14357863E+00 -1.00831168E+00 -1.00831168E+00 -8.17343502E-01
 -8.17343502E-01 -7.02602666E-01 -6.38047564E-01 -6.11462549E-01 -5.81724747E-01
 -5.81724747E-01 -4.95278999E-01 -4.88503619E-01 -4.88503619E-01 -3.29649975E-01
 -3.29649975E-01  1.47639818E-01  1.47639818E-01  2.33329965E-01  2.92591662E-01
  2.92591662E-01  3.31208807E-01  3.31208807E-01  3.35319792E-01  3.67209949E-01
  4.71989767E-01  4.71989767E-01  4.97372036E-01  4.97372036E-01  6.59286363E-01
  7.38750572E-01  7.55964725E-01  7.78873281E-01  7.82968838E-01  7.87534203E-01
  8.32170458E-01  8.32170458E-01  8.43918418E-01  8.43918418E-01  8.49119730E-01
  8.49119730E-01  9.13947787E-01  9.13947787E-01  9.95717873E-01  1.11241787E+00
  1.11241787E+00  1.11851413E+00  1.11851413E+00  1.12389210E+00  1.18730437E+00
  1.18730437E+00  1.20316131E+00  1.24755773E+00  1.30306814E+00  1.30306814E+00
  1.38942938E+00  1.38942938E+00  1.46175759E+00  1.51807307E+00  1.66182571E+00
  1.69758357E+00  1.69758357E+00  1.76714172E+00  1.76714172E+00  1.79571881E+00
  1.79571881E+00  2.04862929E+00  2.09362469E+00  2.16223391E+00  2.17059006E+00
  2.30612932E+00  2.30612932E+00  2.39729672E+00  2.39729672E+00  2.46911083E+00
  2.46911083E+00  2.47651145E+00  2.47651145E+00  2.63977820E+00  2.63977820E+00
  2.64929896E+00  2.88151818E+00  2.88151818E+00  3.00531940E+00  3.07605063E+00
  3.07605063E+00  3.08576820E+00  3.08576820E+00  3.08954330E+00  3.39541468E+00
  3.79742375E+00  4.51536346E+00  4.54384514E+00  4.54384514E+00  4.75621013E+00
  4.75621013E+00  5.09756921E+00
Alpha MO coefficients                      R   N=       10404
  4.06261224E-01  1.10600117E-02  0.00000000E+00  3.70066435E-05  0.00000000E+00
 -2.19177021E-03  0.00000000E+00 -3.23606186E-04  0.00000000E+00 -9.48641552E-04
 -9.01012667E-04 -1.08528686E-03  0.00000000E+00  0.00000000E+00  0.00000000E+00
  4.06261224E-01  1.10600117E-02  3.20486934E-05  1.85033218E-05  0.00000000E+00
 -2.19177021E-03 -2.80251178E-04 -1.61803093E-04  0.00000000E+00 -9.12919888E-04
 -9.36734330E-04 -1.08528686E-03  2.38144424E-05  0.00000000E+00  0.00000000E+00
  4.06261224E-01  1.10600117E-02  3.20486934E-05 -1.85033218E-05  0.00000000E+00
 -2.19177021E-03 -2.80251178E-04  1.61803093E-04  0.00000000E+00 -9.12919888E-04
 -9.36734330E-04 -1.08528686E-03 -2.38144424E-05  0.00000000E+00  0.00000000E+00
  4.06261224E-01  1.10600117E-02  0.00000000E+00 -3.70066435E-05  0.00000000E+00
 -2.19177021E-03  0.00000000E+00  3.23606186E-04  0.00000000E+00 -9.48641552E-04
 -9.01012667E-04 -1.08528686E-03  0.00000000E+00  0.00000000E+00  0.00000000E+00
  4.06261224E-01  1.10600117E-02 -3.20486934E-05 -1.85033218E-05  0.00000000E+00
 -2.19177021E-03  2.80251178E-04  1.61803093E-04  0.00000000E+00 -9.12919888E-04
 -9.36734330E-04 -1.08528686E-03  2.38144424E-05  0.00000000E+00  0.00000000E+00
  4.06261224E-01  1.10600117E-02 -3.20486934E-05  1.85033218E-05  0.00000000E+00
 -2.19177021E-03  2.80251178E-04 -1.61803093E-04  0.00000000E+00 -9.12919888E-04
 -9.36734330E-04 -1.08528686E-03 -2.38144424E-05  0.00000000E+00  0.00000000E+00
 -1.06678374E-04  8.30077054E-04 -1.06678374E-04  8.30077054E-04 -1.06678374E-04
  8.30077054E-04 -1.06678374E-04  8.30077054E-04 -1.06678374E-04  8.30077054E-04
 -1.06678374E-04  8.30077054E-04  5.74695371E-01  1.59791855E-02  0.00000000E+00
 -8.58766097E-05  0.00000000E+00 -4.96528211E-03  0.00000000E+00  2.33139327E-04
  0.00000000E+00 -1.18897232E-03 -1.24552498E-03 -1.40952008E-03  0.00000000E+00
  0.00000000E+00  0.00000000E+00  2.87347686E-01  7.98959274E-03  2.26620746E-05
 -1.25128474E-04  0.00000000E+00 -2.48264105E-03 -4.31239438E-04  9.80067944E-04
  0.00000000E+00 -6.34251626E-04 -5.82997023E-04 -7.04760038E-04 -1.76601888E-06
  0.00000000E+00  0.00000000E+00 -2.87347686E-01 -7.98959274E-03 -2.26620746E-05
 -1.25128474E-04  0.00000000E+00  2.48264105E-03  4.31239438E-04  9.80067944E-04
  0.00000000E+00  6.34251626E-04  5.82997023E-04  7.04760038E-04 -1.76601888E-06
  0.00000000E+00  0.00000000E+00 -5.74695371E-01 -1.59791855E-02  0.00000000E+00
 -8.58766097E-05  0.00000000E+00  4.96528211E-03  0.00000000E+00  2.33139327E-04
  0.00000000E+00  1.18897232E-03  1.24552498E-03  1.40952008E-03  0.00000000E+00
  0.00000000E+00  0.00000000E+00 -2.87347686E-01 -7.98959274E-03  2.26620746E-05
 -1.25128474E-04  0.00000000E+00  2.48264105E-03 -4.31239438E-04  9.80067944E-04
  0.00000000E+00  6.34251626E-04  5.82997023E-04  7.04760038E-04  1.76601888E-06
  0.00000000E+00  0.00000000E+00  2.87347686E-01  7.98959274E-03 -2.26620746E-05
 -1.25128474E-04  0.00000000E+00 -2.48264105E-03  4.31239438E-04  9.80067944E-04
  0.00000000E+00 -6.34251626E-04 -5.82997023E-04 -7.04760038E-04  1.76601888E-06
  0.00000000E+00  0.00000000E+00 -1.31560722E-04  9.15483005E-04 -6.57803610E-05
  4.57741502E-04  6.57803610E-05 -4.57741502E-04  1.31560722E-04 -9.15483005E-04
  6.57803610E-05 -4.57741502E-04 -6.57803610E-05  4.57741502E-04  0.00000000E+00
  0.00000000E+00 -1.38212429E-04  0.00000000E+00  0.00000000E+00  0.00000000E+00
  1.22904415E-03  0.00000000E+00  0.00000000E+00  0.00000000E+00  0.00000000E+00
  0.00000000E+00  2.85722474E-05  0.00000000E+00  0.00000000E+00  4.97700791E-01
  1.38383806E-02 -9.89605645E-05  2.26620746E-05  0.00000000E+00 -4.30006044E-03
  4.82115532E-04 -4.31239438E-04  0.00000000E+00 -1.05569767E-03 -1.05263884E-03
 -1.22068019E-03 -3.16310818E-05  0.00000000E+00  0.00000000E+00  4.97700791E-01
  1.38383806E-02 -9.89605645E-05 -2.26620746E-05  0.00000000E+00 -4.30006044E-03
  4.82115532E-04  4.31239438E-04  0.00000000E+00 -1.05569767E-03 -1.05263884E-03
 -1.22068019E-03  3.16310818E-05  0.00000000E+00  0.00000000E+00  0.00000000E+00
  0.00000000E+00 -1.38212429E-04  0.00000000E+00  0.00000000E+00  0.00000000E+00
  1.22904415E-03  0.00000000E+00  0.00000000E+00  0.00000000E+00  0.00000000E+00
  0.00000000E+00 -2.85722474E-05  0.00000000E+00  0.00000000E+00 -4.97700791E-01
 -1.38383806E-02 -9.89605645E-05  2.26620746E-05  0.00000000E+00  4.30006044E-03
  4.82115532E-04 -4.31239438E-04  0.00000000E+00  1.05569767E-03  1.05263884E-03
  1.22068019E-03  3.16310818E-05  0.00000000E+00  0.00000000E+00 -4.97700791E-01
 -1.38383806E-02 -9.89605645E-05 -2.26620746E-05  0.00000000E+00  4.30006044E-03
  4.82115532E-04  4.31239438E-04  0.00000000E+00  1.05569767E-03  1.05263884E-03
  1.22068019E-03 -3.16310818E-05  0.00000000E+00  0.00000000E+00  0.00000000E+00
  0.00000000E+00 -1.13934927E-04  7.92831539E-04 -1.13934927E-04  7.92831539E-04
  0.00000000E+00  0.00000000E+00  1.13934927E-04 -7.92831539E-04  1.13934927E-04
 -7.92831539E-04  5.74987993E-01  1.61034431E-02  0.00000000E+00 -2.02657589E-04
  0.00000000E+00 -9.73050811E-03  0.00000000E+00  1.66426704E-03  0.00000000E+00
 -6.11155657E-04 -9.21806768E-04 -1.32376360E-03  0.00000000E+00  0.00000000E+00
  0.00000000E+00 -2.87493996E-01 -8.05172157E-03  1.41074469E-04 -4.16905586E-05
  0.00000000E+00  4.86525406E-03 -1.24903460E-03  4.99124360E-04  0.00000000E+00
  3.31639395E-04  4.34841818E-04  6.61881799E-04  1.37951178E-04  0.00000000E+00
  0.00000000E+00 -2.87493996E-01 -8.05172157E-03  1.41074469E-04  4.16905586E-05
  0.00000000E+00  4.86525406E-03 -1.24903460E-03 -4.99124360E-04  0.00000000E+00
  3.31639395E-04  4.34841818E-04  6.61881799E-04 -1.37951178E-04  0.00000000E+00
  0.00000000E+00  5.74987993E-01  1.61034431E-02  0.00000000E+00  2.02657589E-04
  0.00000000E+00 -9.73050811E-03  0.00000000E+00 -1.66426704E-03  0.00000000E+00
 -6.11155657E-04 -9.21806768E-04 -1.32376360E-03  0.00000000E+00  0.00000000E+00
  0.00000000E+00 -2.87493996E-01 -8.05172157E-03 -1.41074469E-04  4.16905586E-05
  0.00000000E+00  4.86525406E-03  1.24903460E-03 -4.99124360E-04  0.00000000E+00
  3.31639395E-04  4.34841818E-04  6.61881799E-04  1.37951178E-04  0.00000000E+00
  0.00000000E+00 -2.87493996E-01 -8.05172157E-03 -1.41074469E-04 -4.16905586E-05
  0.00000000E+00  4.86525406E-03  1.24903460E-03  4.99124360E-04  0.00000000E+00
  3.31639395E-04  4.34841818E-04  6.61881799E-04 -1.37951178E-04  0.00000000E+00
  0.00000000E+00 -8.35734796E-05  8.45735051E-04  4.17867398E-05 -4.22867526E-04
  4.17867398E-05 -4.22867526E-04 -8.35734796E-05  8.45735051E-04  4.17867398E-05
 -4.22867526E-04  4.17867398E-05 -4.22867526E-04  0.00000000E+00  0.00000000E+00
 -1.23139941E-04  0.00000000E+00  0.00000000E+00  0.00000000E+00  1.22025482E-03
  0.00000000E+00  0.00000000E+00  0.00000000E+00  0.00000000E+00  0.00000000E+00
  1.39230097E-04  0.00000000E+00  0.00000000E+00  4.97954209E-01  1.39459908E-02
 -1.21208206E-04 -1.41074469E-04  0.00000000E+00 -8.42686722E-03  9.43136570E-04
  1.24903460E-03  0.00000000E+00 -7.83261426E-04 -5.44322977E-04 -1.14641290E-03
 -9.97083525E-05  0.00000000E+00  0.00000000E+00 -4.97954209E-01 -1.39459908E-02
  1.21208206E-04 -1.41074469E-04  0.00000000E+00  8.42686722E-03 -9.43136570E-04
  1.24903460E-03  0.00000000E+00  7.83261426E-04  5.44322977E-04  1.14641290E-03
 -9.97083525E-05  0.00000000E+00  0.00000000E+00  0.00000000E+00  0.00000000E+00
  1.23139941E-04  0.00000000E+00  0.00000000E+00  0.00000000E+00 -1.22025482E-03
  0.00000000E+00  0.00000000E+00  0.00000000E+00  0.00000000E+00  0.00000000E+00
  1.39230097E-04  0.00000000E+00  0.00000000E+00  4.97954209E-01  1.39459908E-02
  1.21208206E-04  1.41074469E-04  0.00000000E+00 -8.42686722E-03 -9.43136570E-04
 -1.24903460E-03  0.00000000E+00 -7.83261426E-04 -5.44322977E-04 -1.14641290E-03
 -9.97083525E-05  0.00000000E+00  0.00000000E+00 -4.97954209E-01 -1.39459908E-02
 -1.21208206E-04  1.41074469E-04  0.00000000E+00  8.42686722E-03  9.43136570E-04
 -1.24903460E-03  0.00000000E+00  7.83261426E-04  5.44322977E-04  1.14641290E-03
 -9.97083525E-05  0.00000000E+00  0.00000000E+00  0.00000000E+00  0.00000000E+00
 -7.23767565E-05  7.32428039E-04  7.23767565E-05 -7.32428039E-04  0.00000000E+00
  0.00000000E+00 -7.23767565E-05  7.32428039E-04  7.23767565E-05 -7.32428039E-04
  4.06751214E-01  1.16596209E-02  0.00000000E+00 -2.14684263E-04  0.00000000E+00
 -1.51902254E-02  0.00000000E+00  5.47919168E-03  0.00000000E+00 -1.25756411E-04
 -4.00928896E-04 -7.83370191E-04  0.00000000E+00  0.00000000E+00  0.00000000E+00
 -4.06751214E-01 -1.16596209E-02  1.85922026E-04  1.07342132E-04  0.00000000E+00
  1.51902254E-02 -4.74511919E-03 -2.73959584E-03  0.00000000E+00  3.32135775E-04
  1.94549533E-04  7.83370191E-04  1.37586242E-04  0.00000000E+00  0.00000000E+00
  4.06751214E-01  1.16596209E-02 -1.85922026E-04  1.07342132E-04  0.00000000E+00
 -1.51902254E-02  4.74511919E-03 -2.73959584E-03  0.00000000E+00 -3.32135775E-04