title                                                                   
SP        RHF                                                         STO-3G              
Number of atoms                            I               12
Info1-9                                    I   N=           9
          23          21           0           0           0         110
           1           1           2
Full Title                                 C   N=           1
title       
Route                                      C   N=           2
#p hf sto-3g output=wfx 
Charge                                     I                0
Multiplicity                               I                1
Number of electrons                        I               42
Number of alpha electrons                  I               21
Number of beta electrons                   I               21
Number of basis functions                  I               36
Number of independent functions            I               36
Number of point charges in /Mol/           I                0
Number of translation vectors              I                0
Atomic numbers                             I   N=          12
           6           6           6           6           6           6
           1           1           1           1           1           1
Nuclear charges                            R   N=          12
  6.00000000E+00  6.00000000E+00  6.00000000E+00  6.00000000E+00  6.00000000E+00
  6.00000000E+00  1.00000000E+00  1.00000000E+00  1.00000000E+00  1.00000000E+00
  1.00000000E+00  1.00000000E+00
Current cartesian coordinates              R   N=          36
 -5.65156259E-16  2.63344107E+00  0.00000000E+00  2.28062687E+00  1.31672053E+00
  0.00000000E+00  2.28062687E+00 -1.31672053E+00  0.00000000E+00  2.42652742E-16
 -2.63344107E+00  0.00000000E+00 -2.28062687E+00 -1.31672053E+00  0.00000000E+00
 -2.28062687E+00  1.31672053E+00  0.00000000E+00 -1.00525527E-15  4.68415674E+00
  0.00000000E+00  4.05659873E+00  2.34207837E+00  0.00000000E+00  4.05659873E+00
 -2.34207837E+00  0.00000000E+00  4.31611510E-16 -4.68415674E+00  0.00000000E+00
 -4.05659873E+00 -2.34207837E+00  0.00000000E+00 -4.05659873E+00  2.34207837E+00
  0.00000000E+00
Number of symbols in /Mol/                 I                0
Force Field                                I                0
Atom Types                                 C   N=          12
                                                            
                                                            
                        
Int Atom Types                             I   N=          12
           0           0           0           0           0           0
           0           0           0           0           0           0
MM charges                                 R   N=          12
  0.00000000E+00  0.00000000E+00  0.00000000E+00  0.00000000E+00  0.00000000E+00
  0.00000000E+00  0.00000000E+00  0.00000000E+00  0.00000000E+00  0.00000000E+00
  0.00000000E+00  0.00000000E+00
Integer atomic weights                     I   N=          12
          12          12          12          12          12          12
           1           1           1           1           1           1
Real atomic weights                        R   N=          12
  1.20000000E+01  1.20000000E+01  1.20000000E+01  1.20000000E+01  1.20000000E+01
  1.20000000E+01  1.00782504E+00  1.00782504E+00  1.00782504E+00  1.00782504E+00
  1.00782504E+00  1.00782504E+00
Atom fragment info                         I   N=          12
           0           0           0           0           0           0
           0           0           0           0           0           0
Atom residue num                           I   N=          12
           0           0           0           0           0           0
           0           0           0           0           0           0
Nuclear spins                              I   N=          12
           0           0           0           0           0           0
           1           1           1           1           1           1
Nuclear ZEff                               R   N=          12
 -3.60000000E+00 -3.60000000E+00 -3.60000000E+00 -3.60000000E+00 -3.60000000E+00
 -3.60000000E+00 -1.00000000E+00 -1.00000000E+00 -1.00000000E+00 -1.00000000E+00
 -1.00000000E+00 -1.00000000E+00
Nuclear ZNuc                               R   N=          12
  6.00000000E+00  6.00000000E+00  6.00000000E+00  6.00000000E+00  6.00000000E+00
  6.00000000E+00  1.00000000E+00  1.00000000E+00  1.00000000E+00  1.00000000E+00
  1.00000000E+00  1.00000000E+00
Nuclear QMom                               R   N=          12
  0.00000000E+00  0.00000000E+00  0.00000000E+00  0.00000000E+00  0.00000000E+00
  0.00000000E+00  0.00000000E+00  0.00000000E+00  0.00000000E+00  0.00000000E+00
  0.00000000E+00  0.00000000E+00
Nuclear GFac                               R   N=          12
  0.00000000E+00  0.00000000E+00  0.00000000E+00  0.00000000E+00  0.00000000E+00
  0.00000000E+00  2.79284600E+00  2.79284600E+00  2.79284600E+00  2.79284600E+00
  2.79284600E+00  2.79284600E+00
MicOpt                                     I   N=          12
          -1          -1          -1          -1          -1          -1
          -1          -1          -1          -1          -1          -1
Number of residues                         I                0
Number of secondary structures             I                0
SymInf integers                            I   N=          26
           4           8           1           1           1          -1
          -1           1          -1           1          -1           1
          -1          -1          -1           1           1           1
          -1           1           1           1          -1          -1
          -1          -1
RotTr to input orientation                 R   N=          12
  1.00000000E+00  2.14607521E-16  0.00000000E+00 -2.14607521E-16  1.00000000E+00
  0.00000000E+00  0.00000000E+00  0.00000000E+00  1.00000000E+00  0.00000000E+00
  0.00000000E+00  0.00000000E+00
Number of contracted shells                I               18
Number of primitive shells                 I               54
Pure/Cartesian d shells                    I                0
Pure/Cartesian f shells                    I                0
Highest angular momentum                   I                1
Largest degree of contraction              I                3
Shell types                                I   N=          18
           0          -1           0          -1           0          -1
           0          -1           0          -1           0          -1
           0           0           0           0           0           0
Number of primitives per shell             I   N=          18
           3           3           3           3           3           3
           3           3           3           3           3           3
           3           3           3           3           3           3
Shell to atom map                          I   N=          18
           1           1           2           2           3           3
           4           4           5           5           6           6
           7           8           9          10          11          12
Primitive exponents                        R   N=          54
  7.16168373E+01  1.30450963E+01  3.53051216E+00  2.94124936E+00  6.83483096E-01
  2.22289916E-01  7.16168373E+01  1.30450963E+01  3.53051216E+00  2.94124936E+00
  6.83483096E-01  2.22289916E-01  7.16168373E+01  1.30450963E+01  3.53051216E+00
  2.94124936E+00  6.83483096E-01  2.22289916E-01  7.16168373E+01  1.30450963E+01
  3.53051216E+00  2.94124936E+00  6.83483096E-01  2.22289916E-01  7.16168373E+01
  1.30450963E+01  3.53051216E+00  2.94124936E+00  6.83483096E-01  2.22289916E-01
  7.16168373E+01  1.30450963E+01  3.53051216E+00  2.94124936E+00  6.83483096E-01
  2.22289916E-01  3.42525091E+00  6.23913730E-01  1.68855404E-01  3.42525091E+00
  6.23913730E-01  1.68855404E-01  3.42525091E+00  6.23913730E-01  1.68855404E-01
  3.42525091E+00  6.23913730E-01  1.68855404E-01  3.42525091E+00  6.23913730E-01
  1.68855404E-01  3.42525091E+00  6.23913730E-01  1.68855404E-01
Contraction coefficients                   R   N=          54
  1.54328967E-01  5.35328142E-01  4.44634542E-01 -9.99672292E-02  3.99512826E-01
  7.00115469E-01  1.54328967E-01  5.35328142E-01  4.44634542E-01 -9.99672292E-02
  3.99512826E-01  7.00115469E-01  1.54328967E-01  5.35328142E-01  4.44634542E-01
 -9.99672292E-02  3.99512826E-01  7.00115469E-01  1.54328967E-01  5.35328142E-01
  4.44634542E-01 -9.99672292E-02  3.99512826E-01  7.00115469E-01  1.54328967E-01
  5.35328142E-01  4.44634542E-01 -9.99672292E-02  3.99512826E-01  7.00115469E-01
  1.54328967E-01  5.35328142E-01  4.44634542E-01 -9.99672292E-02  3.99512826E-01
  7.00115469E-01  1.54328967E-01  5.35328142E-01  4.44634542E-01  1.54328967E-01
  5.35328142E-01  4.44634542E-01  1.54328967E-01  5.35328142E-01  4.44634542E-01
  1.54328967E-01  5.35328142E-01  4.44634542E-01  1.54328967E-01  5.35328142E-01
  4.44634542E-01  1.54328967E-01  5.35328142E-01  4.44634542E-01
P(S=P) Contraction coefficients            R   N=          54
  0.00000000E+00  0.00000000E+00  0.00000000E+00  1.55916275E-01  6.07683719E-01
  3.91957393E-01  0.00000000E+00  0.00000000E+00  0.00000000E+00  1.55916275E-01
  6.07683719E-01  3.91957393E-01  0.00000000E+00  0.00000000E+00  0.00000000E+00
  1.55916275E-01  6.07683719E-01  3.91957393E-01  0.00000000E+00  0.00000000E+00
  0.00000000E+00  1.55916275E-01  6.07683719E-01  3.91957393E-01  0.00000000E+00
  0.00000000E+00  0.00000000E+00  1.55916275E-01  6.07683719E-01  3.91957393E-01
  0.00000000E+00  0.00000000E+00  0.00000000E+00  1.55916275E-01  6.07683719E-01
  3.91957393E-01  0.00000000E+00  0.00000000E+00  0.00000000E+00  0.00000000E+00
  0.00000000E+00  0.00000000E+00  0.00000000E+00  0.00000000E+00  0.00000000E+00
  0.00000000E+00  0.00000000E+00  0.00000000E+00  0.00000000E+00  0.00000000E+00
  0.00000000E+00  0.00000000E+00  0.00000000E+00  0.00000000E+00
Coordinates of each shell                  R   N=          54
  0.00000000E+00  2.63344107E+00  0.00000000E+00  0.00000000E+00  2.63344107E+00
  0.00000000E+00  2.28062687E+00  1.31672053E+00  0.00000000E+00  2.28062687E+00
  1.31672053E+00  0.00000000E+00  2.28062687E+00 -1.31672053E+00  0.00000000E+00
  2.28062687E+00 -1.31672053E+00  0.00000000E+00 -3.22503518E-16 -2.63344107E+00
  0.00000000E+00 -3.22503518E-16 -2.63344107E+00  0.00000000E+00 -2.28062687E+00
 -1.31672053E+00  0.00000000E+00 -2.28062687E+00 -1.31672053E+00  0.00000000E+00
 -2.28062687E+00  1.31672053E+00  0.00000000E+00 -2.28062687E+00  1.31672053E+00
  0.00000000E+00  0.00000000E+00  4.68415674E+00  0.00000000E+00  4.05659873E+00
  2.34207837E+00  0.00000000E+00  4.05659873E+00 -2.34207837E+00  0.00000000E+00
 -5.73643756E-16 -4.68415674E+00  0.00000000E+00 -4.05659873E+00 -2.34207837E+00
  0.00000000E+00 -4.05659873E+00  2.34207837E+00  0.00000000E+00
Num ILSW                                   I              100
ILSW                                       I   N=         100
           0           0           0           0           2           0
           0           0           0           0           0          -1
           5           0           0           0           0           0
           0           0           0           0           0           0
           1           0           0           0           0           0
           0           0      100000           0          -1           0
           0           0           0           0           0           0
           0           0           0           1           0           0
           0 -2000000000           1           0           0           0
           0           0           4          52           0           0
           0           0           0           0           0           0
           0           0           0          12           0           1
           0           0           0           0           0           0
           0           0           0           0           0           0
           0           0           0           0           0           0
           0           0           0           0           0           0
           0           0           0           0
Num RLSW                                   I               52
RLSW                                       R   N=          52
  1.00000000E+00  1.00000000E+00  1.00000000E+00  1.00000000E+00  1.00000000E+00
  0.00000000E+00  0.00000000E+00  1.00000000E+00  0.00000000E+00  0.00000000E+00
  0.00000000E+00  0.00000000E+00  1.00000000E+00  0.00000000E+00  0.00000000E+00
  0.00000000E+00  0.00000000E+00  1.00000000E+00  0.00000000E+00  0.00000000E+00
  0.00000000E+00  0.00000000E+00  1.00000000E+00  0.00000000E+00  0.00000000E+00
  0.00000000E+00  0.00000000E+00  1.00000000E+00  0.00000000E+00  0.00000000E+00
  0.00000000E+00  0.00000000E+00  1.00000000E+00  0.00000000E+00  0.00000000E+00
  0.00000000E+00  0.00000000E+00  0.00000000E+00  1.00000000E+00  1.00000000E+00
  0.00000000E+00  1.00000000E+00  0.00000000E+00  0.00000000E+00  0.00000000E+00
  0.00000000E+00  0.00000000E+00  0.00000000E+00  0.00000000E+00  0.00000000E+00
  0.00000000E+00  0.00000000E+00
MxBond                                     I                3
NBond                                      I   N=          12
           3           3           3           3           3           3
           1           1           1           1           1           1
IBond                                      I   N=          36
           2           6           7           1           3           8
           2           4           9           3           5          10
           4           6          11           1           5          12
           1           0           0           2           0           0
           3           0           0           4           0           0
           5           0           0           6           0           0
RBond                                      R   N=          36
  1.50000000E+00  1.50000000E+00  1.00000000E+00  1.50000000E+00  1.50000000E+00
  1.00000000E+00  1.50000000E+00  1.50000000E+00  1.00000000E+00  1.50000000E+00
  1.50000000E+00  1.00000000E+00  1.50000000E+00  1.50000000E+00  1.00000000E+00
  1.50000000E+00  1.50000000E+00  1.00000000E+00  1.00000000E+00  0.00000000E+00
  0.00000000E+00  1.00000000E+00  0.00000000E+00  0.00000000E+00  1.00000000E+00
  0.00000000E+00  0.00000000E+00  1.00000000E+00  0.00000000E+00  0.00000000E+00
  1.00000000E+00  0.00000000E+00  0.00000000E+00  1.00000000E+00  0.00000000E+00
  0.00000000E+00
Virial Ratio                               R      2.008444756578589E+00
SCF Energy                                 R     -2.278909961727317E+02
Total Energy                               R     -2.278909961727317E+02
RMS Density                                R      4.008290798793471E-09
Job Status                                 I                1
Nuclear derivative order                   I                0
External E-field                           R   N=          35
  0.00000000E+00  0.00000000E+00  0.00000000E+00  0.00000000E+00  0.00000000E+00
  0.00000000E+00  0.00000000E+00  0.00000000E+00  0.00000000E+00  0.00000000E+00
  0.00000000E+00  0.00000000E+00  0.00000000E+00  0.00000000E+00  0.00000000E+00
  0.00000000E+00  0.00000000E+00  0.00000000E+00  0.00000000E+00  0.00000000E+00
  0.00000000E+00  0.00000000E+00  0.00000000E+00  0.00000000E+00  0.00000000E+00
  0.00000000E+00  0.00000000E+00  0.00000000E+00  0.00000000E+00  0.00000000E+00
  0.00000000E+00  0.00000000E+00  0.00000000E+00  0.00000000E+00  0.00000000E+00
IOpCl                                      I                0
IROHF                                      I                0
Alpha Orbital Energies                     R   N=          36
 -1.10291435E+01 -1.10291435E+01 -1.10291212E+01 -1.10287792E+01 -1.10287792E+01
 -1.10286307E+01 -1.09078117E+00 -9.55100248E-01 -9.55100248E-01 -7.66970253E-01
 -7.66970253E-01 -6.62368943E-01 -5.93889105E-01 -5.53826244E-01 -5.34159793E-01
 -5.34159793E-01 -4.56864467E-01 -4.32845685E-01 -4.32845685E-01 -2.80266231E-01
 -2.80266231E-01  2.69071992E-01  2.69071992E-01  5.04540502E-01  5.78267455E-01
  6.48226493E-01  6.48226493E-01  7.21256772E-01  7.35477287E-01  7.35477287E-01
  8.84774952E-01  8.84774952E-01  8.98161332E-01  8.98161332E-01  1.08880988E+00
  1.15220832E+00
Alpha MO coefficients                      R   N=        1296
  5.73027658E-01  1.68209414E-02  0.00000000E+00  5.21710418E-04  0.00000000E+00
  2.86513829E-01  8.41047072E-03  1.86062597E-03 -2.70098829E-03  0.00000000E+00
 -2.86513829E-01 -8.41047072E-03 -1.86062597E-03 -2.70098829E-03  0.00000000E+00
 -5.73027658E-01 -1.68209414E-02  0.00000000E+00  5.21710418E-04  0.00000000E+00
 -2.86513829E-01 -8.41047072E-03  1.86062597E-03 -2.70098829E-03  0.00000000E+00
  2.86513829E-01  8.41047072E-03 -1.86062597E-03 -2.70098829E-03  0.00000000E+00
 -3.79944954E-03 -1.89972477E-03  1.89972477E-03  3.79944954E-03  1.89972477E-03
 -1.89972477E-03  0.00000000E+00  0.00000000E+00 -3.77522119E-03  0.00000000E+00
  0.00000000E+00  4.96256509E-01  1.45673626E-02 -5.52522485E-04  1.86062597E-03
  0.00000000E+00  4.96256509E-01  1.45673626E-02 -5.52522485E-04 -1.86062597E-03
  0.00000000E+00  0.00000000E+00  0.00000000E+00 -3.77522119E-03  0.00000000E+00
  0.00000000E+00 -4.96256509E-01 -1.45673626E-02 -5.52522485E-04  1.86062597E-03
  0.00000000E+00 -4.96256509E-01 -1.45673626E-02 -5.52522485E-04 -1.86062597E-03
  0.00000000E+00  0.00000000E+00 -3.29041982E-03 -3.29041982E-03  0.00000000E+00
  3.29041982E-03  3.29041982E-03  4.05411658E-01  9.19401568E-03  0.00000000E+00
  1.53428569E-03  0.00000000E+00  4.05411658E-01  9.19401568E-03  1.32873039E-03
  7.67142846E-04  0.00000000E+00  4.05411658E-01  9.19401568E-03  1.32873039E-03
 -7.67142846E-04  0.00000000E+00  4.05411658E-01  9.19401568E-03  0.00000000E+00
 -1.53428569E-03  0.00000000E+00  4.05411658E-01  9.19401568E-03 -1.32873039E-03
 -7.67142846E-04  0.00000000E+00  4.05411658E-01  9.19401568E-03 -1.32873039E-03
  7.67142846E-04  0.00000000E+00 -2.80959229E-03 -2.80959229E-03 -2.80959229E-03
 -2.80959229E-03 -2.80959229E-03 -2.80959229E-03  0.00000000E+00  0.00000000E+00
 -3.91077468E-03  0.00000000E+00  0.00000000E+00  4.95892805E-01  2.16312987E-02
 -4.80106420E-04 -2.53507639E-03  0.00000000E+00 -4.95892805E-01 -2.16312987E-02
  4.80106420E-04 -2.53507639E-03  0.00000000E+00  0.00000000E+00  0.00000000E+00
  3.91077468E-03  0.00000000E+00  0.00000000E+00  4.95892805E-01  2.16312987E-02
  4.80106420E-04  2.53507639E-03  0.00000000E+00 -4.95892805E-01 -2.16312987E-02
 -4.80106420E-04  2.53507639E-03  0.00000000E+00  0.00000000E+00 -3.44063258E-03
  3.44063258E-03  0.00000000E+00 -3.44063258E-03  3.44063258E-03  5.72607688E-01
  2.49776722E-02  0.00000000E+00 -1.94373345E-03  0.00000000E+00 -2.86303844E-01
 -1.24888361E-02  2.53507639E-03 -2.44714765E-03  0.00000000E+00 -2.86303844E-01
 -1.24888361E-02  2.53507639E-03  2.44714765E-03  0.00000000E+00  5.72607688E-01
  2.49776722E-02  0.00000000E+00  1.94373345E-03  0.00000000E+00 -2.86303844E-01
 -1.24888361E-02 -2.53507639E-03  2.44714765E-03  0.00000000E+00 -2.86303844E-01
 -1.24888361E-02 -2.53507639E-03 -2.44714765E-03  0.00000000E+00 -3.97290030E-03
  1.98645015E-03  1.98645015E-03 -3.97290030E-03  1.98645015E-03  1.98645015E-03
  4.04738632E-01  2.09753369E-02  0.00000000E+00 -2.46807957E-03  0.00000000E+00
 -4.04738632E-01 -2.09753369E-02  2.13741961E-03  1.23403979E-03  0.00000000E+00
  4.04738632E-01  2.09753369E-02 -2.13741961E-03  1.23403979E-03  0.00000000E+00
 -4.04738632E-01 -2.09753369E-02  0.00000000E+00 -2.46807957E-03  0.00000000E+00
  4.04738632E-01  2.09753369E-02  2.13741961E-03  1.23403979E-03  0.00000000E+00
 -4.04738632E-01 -2.09753369E-02 -2.13741961E-03  1.23403979E-03  0.00000000E+00
 -2.90499628E-03  2.90499628E-03 -2.90499628E-03  2.90499628E-03 -2.90499628E-03
  2.90499628E-03 -1.04724016E-01  2.64656657E-01  0.00000000E+00 -6.20613598E-02
  0.00000000E+00 -1.04724016E-01  2.64656657E-01 -5.37467142E-02 -3.10306799E-02
  0.00000000E+00 -1.04724016E-01  2.64656657E-01 -5.37467142E-02  3.10306799E-02
  0.00000000E+00 -1.04724016E-01  2.64656657E-01  0.00000000E+00  6.20613598E-02
  0.00000000E+00 -1.04724016E-01  2.64656657E-01  5.37467142E-02  3.10306799E-02
  0.00000000E+00 -1.04724016E-01  2.64656657E-01  5.37467142E-02 -3.10306799E-02
  0.00000000E+00  4.68892169E-02  4.68892169E-02  4.68892169E-02  4.68892169E-02
  4.68892169E-02  4.68892169E-02 -1.46551655E-01  3.95118134E-01  0.00000000E+00
 -2.78450114E-02  0.00000000E+00 -7.32758274E-02  1.97559067E-01 -6.85874965E-02
  9.09520173E-02  0.00000000E+00  7.32758274E-02 -1.97559067E-01  6.85874965E-02
  9.09520173E-02  0.00000000E+00  1.46551655E-01 -3.95118134E-01  0.00000000E+00
 -2.78450114E-02  0.00000000E+00  7.32758274E-02 -1.97559067E-01 -6.85874965E-02
  9.09520173E-02  0.00000000E+00 -7.32758274E-02  1.97559067E-01  6.85874965E-02
  9.09520173E-02  0.00000000E+00  1.08635773E-01  5.43178865E-02 -5.43178865E-02
 -1.08635773E-01 -5.43178865E-02  5.43178865E-02  0.00000000E+00  0.00000000E+00
  1.30551027E-01  0.00000000E+00  0.00000000E+00 -1.26917456E-01  3.42182342E-01
  1.17539982E-02 -6.85874965E-02  0.00000000E+00 -1.26917456E-01  3.42182342E-01
  1.17539982E-02  6.85874965E-02  0.00000000E+00  0.00000000E+00  0.00000000E+00
  1.30551027E-01  0.00000000E+00  0.00000000E+00  1.26917456E-01 -3.42182342E-01
  1.17539982E-02 -6.85874965E-02  0.00000000E+00  1.26917456E-01 -3.42182342E-01
  1.17539982E-02  6.85874965E-02  0.00000000E+00  0.00000000E+00  9.40813392E-02
  9.40813392E-02  0.00000000E+00 -9.40813392E-02 -9.40813392E-02 -1.14308041E-01
  3.36535287E-01  0.00000000E+00  8.40011438E-02  0.00000000E+00  5.71540207E-02
 -1.68267644E-01 -1.36564146E-01  1.52534896E-01  0.00000000E+00  5.71540207E-02
 -1.68267644E-01 -1.36564146E-01 -1.52534896E-01  0.00000000E+00 -1.14308041E-01
  3.36535287E-01  0.00000000E+00 -8.40011438E-02  0.00000000E+00  5.71540207E-02
 -1.68267644E-01  1.36564146E-01 -1.52534896E-01  0.00000000E+00  5.71540207E-02
 -1.68267644E-01  1.36564146E-01  1.52534896E-01  0.00000000E+00  1.77941372E-01
 -8.89706858E-02 -8.89706858E-02  1.77941372E-01 -8.89706858E-02 -8.89706858E-02
  0.00000000E+00  0.00000000E+00  2.31380243E-01  0.00000000E+00  0.00000000E+00
 -9.89936676E-02  2.91448108E-01  5.15579710E-03  1.36564146E-01  0.00000000E+00
  9.89936676E-02 -2.91448108E-01 -5.15579710E-03  1.36564146E-01  0.00000000E+00
  0.00000000E+00  0.00000000E+00 -2.31380243E-01  0.00000000E+00  0.00000000E+00
 -9.89936676E-02  2.91448108E-01 -5.15579710E-03 -1.36564146E-01  0.00000000E+00
  9.89936676E-02 -2.91448108E-01  5.15579710E-03 -1.36564146E-01  0.00000000E+00
  0.00000000E+00  1.54101748E-01 -1.54101748E-01  0.00000000E+00  1.54101748E-01
 -1.54101748E-01 -8.98110009E-03  3.66791984E-02  0.00000000E+00  2.34301226E-01
  0.00000000E+00 -8.98110009E-03  3.66791984E-02  2.02910814E-01  1.17150613E-01
  0.00000000E+00 -8.98110009E-03  3.66791984E-02  2.02910814E-01 -1.17150613E-01
  0.00000000E+00 -8.98110009E-03  3.66791984E-02  0.00000000E+00 -2.34301226E-01
  0.00000000E+00 -8.98110009E-03  3.66791984E-02 -2.02910814E-01 -1.17150613E-01
  0.00000000E+00 -8.98110009E-03  3.66791984E-02 -2.02910814E-01  1.17150613E-01
  0.00000000E+00  1.75535617E-01  1.75535617E-01  1.75535617E-01  1.75535617E-01
  1.75535617E-01  1.75535617E-01 -6.52618379E-02  2.19011993E-01  0.00000000E+00
  1.64008906E-01  0.00000000E+00  6.52618379E-02 -2.19011993E-01 -1.42035879E-01
 -8.20044530E-02  0.00000000E+00 -6.52618379E-02  2.19011993E-01  1.42035879E-01
 -8.20044530E-02  0.00000000E+00  6.52618379E-02 -2.19011993E-01  0.00000000E+00
  1.64008906E-01  0.00000000E+00 -6.52618379E-02  2.19011993E-01 -1.42035879E-01
 -8.20044530E-02  0.00000000E+00  6.52618379E-02 -2.19011993E-01  1.42035879E-01
 -8.20044530E-02  0.00000000E+00  2.31962661E-01 -2.31962661E-01  2.31962661E-01
 -2.31962661E-01  2.31962661E-01 -2.31962661E-01  0.00000000E+00  0.00000000E+00
  3.32128607E-01  0.00000000E+00  0.00000000E+00  3.03385288E-15 -9.17995047E-15
 -1.66064304E-01  2.87631811E-01  0.00000000E+00  3.03385288E-15 -9.17995047E-15
 -1.66064304E-01 -2.87631811E-01  0.00000000E+00  0.00000000E+00  0.00000000E+00
  3.32128607E-01  0.00000000E+00  0.00000000E+00 -3.03385288E-15  9.17995047E-15
 -1.66064304E-01  2.87631811E-01  0.00000000E+00 -3.03385288E-15  9.17995047E-15
 -1.66064304E-01 -2.87631811E-01  0.00000000E+00  0.00000000E+00  1.55133254E-14
  1.55133254E-14  0.00000000E+00 -1.55133254E-14 -1.55133254E-14  2.66203128E-02
 -8.39682802E-02  0.00000000E+00  3.69096171E-01  0.00000000E+00  1.33101564E-02
 -4.19841401E-02  2.03893066E-01  1.59430203E-02  0.00000000E+00 -1.33101564E-02
  4.19841401E-02 -2.03893066E-01  1.59430203E-02  0.00000000E+00 -2.66203128E-02
  8.39682802E-02  0.00000000E+00  3.69096171E-01  0.00000000E+00 -1.33101564E-02
  4.19841401E-02  2.03893066E-01  1.59430203E-02  0.00000000E+00  1.33101564E-02
 -4.19841401E-02 -2.03893066E-01  1.59430203E-02  0.00000000E+00  2.83119121E-01
  1.41559560E-01 -1.41559560E-01 -2.83119121E-01 -1.41559560E-01  1.41559560E-01
  0.00000000E+00  0.00000000E+00 -1.01774696E-01  0.00000000E+00  0.00000000E+00
  2.30538672E-02 -7.27186638E-02  2.51378454E-01  2.03893066E-01  0.00000000E+00
  2.30538672E-02 -7.27186638E-02  2.51378454E-01 -2.03893066E-01  0.00000000E+00
  0.00000000E+00  0.00000000E+00 -1.01774696E-01  0.00000000E+00  0.00000000E+00
 -2.30538672E-02  7.27186638E-02  2.51378454E-01  2.03893066E-01  0.00000000E+00
 -2.30538672E-02  7.27186638E-02  2.51378454E-01 -2.03893066E-01  0.00000000E+00
  0.00000000E+00  2.45188351E-01  2.45188351E-01  0.00000000E+00 -2.45188351E-01
 -2.45188351E-01  0.00000000E+00  0.00000000E+00  0.00000000E+00  0.00000000E+00
  3.34120195E-01  0.00000000E+00  0.00000000E+00  0.00000000E+00  0.00000000E+00
  3.34120195E-01  0.00000000E+00  0.00000000E+00  0.00000000E+00  0.00000000E+00
  3.34120195E-01  0.00000000E+00  0.00000000E+00  0.00000000E+00  0.00000000E+00
  3.34120195E-01  0.00000000E+00  0.00000000E+00  0.00000000E+00  0.00000000E+00
  3.34120195E-01  0.00000000E+00  0.00000000E+00  0.00000000E+00  0.00000000E+00
  3.34120195E-01  0.00000000E+00  0.00000000E+00  0.00000000E+00  0.00000000E+00
  0.00000000E+00  0.00000000E+00  0.00000000E+00  0.00000000E+00  3.33549926E-01
  0.00000000E+00  0.00000000E+00 -6.78500339E-03  1.47468801E-02 -2.95006333E-01
  2.22531538E-02  0.00000000E+00  6.78500339E-03 -1.47468801E-02  2.95006333E-01
  2.22531538E-02  0.00000000E+00  0.00000000E+00  0.00000000E+00 -3.33549926E-01
  0.00000000E+00  0.00000000E+00 -6.78500339E-03  1.47468801E-02  2.95006333E-01
 -2.22531538E-02  0.00000000E+00  6.78500339E-03 -1.47468801E-02 -2.95006333E-01
 -2.22531538E-02  0.00000000E+00  0.00000000E+00 -2.58337511E-01  2.58337511E-01
  0.00000000E+00 -2.58337511E-01  2.58337511E-01 -7.83464707E-03  1.70282304E-02
  0.00000000E+00 -2.82158468E-01  0.00000000E+00  3.91732353E-03 -8.51411519E-03
 -2.22531538E-02  3.20702061E-01  0.00000000E+00  3.91732353E-03 -8.51411519E-03
 -2.22531538E-02 -3.20702061E-01  0.00000000E+00 -7.83464707E-03  1.70282304E-02
  0.00000000E+00  2.82158468E-01  0.00000000E+00  3.91732353E-03 -8.51411519E-03
  2.22531538E-02 -3.20702061E-01  0.00000000E+00  3.91732353E-03 -8.51411519E-03
  2.22531538E-02  3.20702061E-01  0.00000000E+00 -2.98302463E-01  1.49151232E-01
  1.49151232E-01 -2.98302463E-01  1.49151232E-01  1.49151232E-01  0.00000000E+00
  0.00000000E+00  0.00000000E+00  0.00000000E+00  5.31617169E-01  0.00000000E+00
  0.00000000E+00  0.00000000E+00  0.00000000E+00  2.65808585E-01  0.00000000E+00
  0.00000000E+00  0.00000000E+00  0.00000000E+00 -2.65808585E-01  0.00000000E+00
  0.00000000E+00  0.00000000E+00  0.00000000E+00 -5.31617169E-01  0.00000000E+00
  0.00000000E+00  0.00000000E+00  0.00000000E+00 -2.65808585E-01  0.00000000E+00
  0.00000000E+00  0.00000000E+00  0.00000000E+00  2.65808585E-01  0.00000000E+00
  0.00000000E+00  0.00000000E+00  0.00000000E+00  0.00000000E+00  0.00000000E+00
  0.00000000E+00  0.00000000E+00  0.00000000E+00  0.00000000E+00  0.00000000E+00
  0.00000000E+00  0.00000000E+00  0.00000000E+00  0.00000000E+00  4.60393974E-01
  0.00000000E+00  0.00000000E+00  0.00000000E+00  0.00000000E+00  4.60393974E-01
  0.00000000E+00  0.00000000E+00  0.00000000E+00  0.00000000E+00  0.00000000E+00
  0.00000000E+00  0.00000000E+00  0.00000000E+00  0.00000000E+00 -4.60393974E-01
  0.00000000E+00  0.00000000E+00  0.00000000E+00  0.00000000E+00 -4.60393974E-01
  0.00000000E+00  0.00000000E+00  0.00000000E+00  0.00000000E+00  0.00000000E+00
  0.00000000E+00  0.00000000E+00  0.00000000E+00  0.00000000E+00  0.00000000E+00
  6.58413489E-01  0.00000000E+00  0.00000000E+00  0.00000000E+00  0.00000000E+00
 -3.29206745E-01  0.00000000E+00  0.00000000E+00  0.00000000E+00  0.00000000E+00
 -3.29206745E-01  0.00000000E+00  0.00000000E+00  0.00000000E+00  0.00000000E+00
  6.58413489E-01  0.00000000E+00  0.00000000E+00  0.00000000E+00  0.00000000E+00
 -3.29206745E-01  0.00000000E+00  0.00000000E+00  0.00000000E+00  0.00000000E+00
 -3.29206745E-01  0.00000000E+00  0.00000000E+00  0.00000000E+00  0.00000000E+00
  0.00000000E+00  0.00000000E+00  0.00000000E+00  0.00000000E+00  0.00000000E+00
  0.00000000E+00  0.00000000E+00  0.00000000E+00  0.00000000E+00  0.00000000E+00
  0.00000000E+00  5.70202808E-01  0.00000000E+00  0.00000000E+00  0.00000000E+00
  0.00000000E+00 -5.70202808E-01  0.00000000E+00  0.00000000E+00  0.00000000E+00
  0.00000000E+00  0.00000000E+00  0.00000000E+00  0.00000000E+00  0.00000000E+00
  0.00000000E+00  5.70202808E-01  0.00000000E+00  0.00000000E+00  0.00000000E+00