title                                                                   
SP        RHF                                                         Aug-CC-pVTZ         
Number of atoms                            I                3
Info1-9                                    I   N=           9
          14          12           0           0           0         110
           1           1           2
Full Title                                 C   N=           1
title       
Route                                      C   N=           3
#p hf aug-cc-pvtz output=wfx        
Charge                                     I                0
Multiplicity                               I                1
Number of electrons                        I               10
Number of alpha electrons                  I                5
Number of beta electrons                   I                5
Number of basis functions                  I               92
Number of independent functions            I               92
Number of point charges in /Mol/           I                0
Number of translation vectors              I                0
Atomic numbers                             I   N=           3
           8           1           1
Nuclear charges                            R   N=           3
  8.00000000E+00  1.00000000E+00  1.00000000E+00
Current cartesian coordinates              R   N=           9
  1.37561390E-17  1.37561390E-17  2.24654421E-01  2.07637740E-16  1.42986694E+00
 -8.98619574E-01 -4.92795049E-16 -1.42986694E+00 -8.98619574E-01
Number of symbols in /Mol/                 I                0
Force Field                                I                0
Atom Types                                 C   N=           3
                                    
Int Atom Types                             I   N=           3
           0           0           0
MM charges                                 R   N=           3
  0.00000000E+00  0.00000000E+00  0.00000000E+00
Integer atomic weights                     I   N=           3
          16           1           1
Real atomic weights                        R   N=           3
  1.59949146E+01  1.00782504E+00  1.00782504E+00
Atom fragment info                         I   N=           3
           0           0           0
Atom residue num                           I   N=           3
           0           0           0
Nuclear spins                              I   N=           3
           0           1           1
Nuclear ZEff                               R   N=           3
 -5.60000000E+00 -1.00000000E+00 -1.00000000E+00
Nuclear ZNuc                               R   N=           3
  8.00000000E+00  1.00000000E+00  1.00000000E+00
Nuclear QMom                               R   N=           3
  0.00000000E+00  0.00000000E+00  0.00000000E+00
Nuclear GFac                               R   N=           3
  0.00000000E+00  2.79284600E+00  2.79284600E+00
MicOpt                                     I   N=           3
          -1          -1          -1
Number of residues                         I                0
Number of secondary structures             I                0
SymInf integers                            I   N=          26
           2           4           1           1           1          -1
          -1           1          -1           1           1           1
          -1           1           0           0           0           0
           0           0           0           0           0           0
           0           0
RotTr to input orientation                 R   N=          12
  1.00000000E+00 -1.83697020E-16 -6.12323400E-17  1.83697020E-16  1.00000000E+00
 -6.12323400E-17  6.12323400E-17  6.12323400E-17  1.00000000E+00  0.00000000E+00
  0.00000000E+00 -3.77945225E-07
Number of contracted shells                I               32
Number of primitive shells                 I               49
Pure/Cartesian d shells                    I                0
Pure/Cartesian f shells                    I                0
Highest angular momentum                   I                3
Largest degree of contraction              I                7
Shell types                                I   N=          32
           0           0           0           0           0           1
           1           1           1          -2          -2          -2
          -3          -3           0           0           0           0
           1           1           1          -2          -2           0
           0           0           0           1           1           1
          -2          -2
Number of primitives per shell             I   N=          32
           7           6           1           1           1           3
           1           1           1           1           1           1
           1           1           3           1           1           1
           1           1           1           1           1           3
           1           1           1           1           1           1
           1           1
Shell to atom map                          I   N=          32
           1           1           1           1           1           1
           1           1           1           1           1           1
           1           1           2           2           2           2
           2           2           2           2           2           3
           3           3           3           3           3           3
           3           3
Primitive exponents                        R   N=          49
  1.53300000E+04  2.29900000E+03  5.22400000E+02  1.47300000E+02  4.75500000E+01
  1.67600000E+01  6.20700000E+00  5.22400000E+02  1.47300000E+02  4.75500000E+01
  1.67600000E+01  6.20700000E+00  6.88200000E-01  1.75200000E+00  2.38400000E-01
  7.37600000E-02  3.44600000E+01  7.74900000E+00  2.28000000E+00  7.15600000E-01
  2.14000000E-01  5.97400000E-02  2.31400000E+00  6.45000000E-01  2.14000000E-01
  1.42800000E+00  5.00000000E-01  3.38700000E+01  5.09500000E+00  1.15900000E+00
  3.25800000E-01  1.02700000E-01  2.52600000E-02  1.40700000E+00  3.88000000E-01
  1.02000000E-01  1.05700000E+00  2.47000000E-01  3.38700000E+01  5.09500000E+00
  1.15900000E+00  3.25800000E-01  1.02700000E-01  2.52600000E-02  1.40700000E+00
  3.88000000E-01  1.02000000E-01  1.05700000E+00  2.47000000E-01
Contraction coefficients                   R   N=          49
  5.19808943E-04  4.02025621E-03  2.07128267E-02  8.10105536E-02  2.35962985E-01
  4.42653446E-01  3.57064423E-01 -4.42115008E-05 -1.22591041E-03 -1.05517725E-02
 -6.74452633E-02 -1.71198607E-01  1.07329856E+00  1.00000000E+00  1.00000000E+00
  1.00000000E+00  4.11634896E-02  2.57762836E-01  8.02419274E-01  1.00000000E+00
  1.00000000E+00  1.00000000E+00  1.00000000E+00  1.00000000E+00  1.00000000E+00
  1.00000000E+00  1.00000000E+00  2.54948632E-02  1.90362766E-01  8.52162022E-01
  1.00000000E+00  1.00000000E+00  1.00000000E+00  1.00000000E+00  1.00000000E+00
  1.00000000E+00  1.00000000E+00  1.00000000E+00  2.54948632E-02  1.90362766E-01
  8.52162022E-01  1.00000000E+00  1.00000000E+00  1.00000000E+00  1.00000000E+00
  1.00000000E+00  1.00000000E+00  1.00000000E+00  1.00000000E+00
Coordinates of each shell                  R   N=          96
  6.92271048E-34 -1.38454210E-33  2.24654799E-01  6.92271048E-34 -1.38454210E-33
  2.24654799E-01  6.92271048E-34 -1.38454210E-33  2.24654799E-01  6.92271048E-34
 -1.38454210E-33  2.24654799E-01  6.92271048E-34 -1.38454210E-33  2.24654799E-01
  6.92271048E-34 -1.38454210E-33  2.24654799E-01  6.92271048E-34 -1.38454210E-33
  2.24654799E-01  6.92271048E-34 -1.38454210E-33  2.24654799E-01  6.92271048E-34
 -1.38454210E-33  2.24654799E-01  6.92271048E-34 -1.38454210E-33  2.24654799E-01
  6.92271048E-34 -1.38454210E-33  2.24654799E-01  6.92271048E-34 -1.38454210E-33
  2.24654799E-01  6.92271048E-34 -1.38454210E-33  2.24654799E-01  6.92271048E-34
 -1.38454210E-33  2.24654799E-01  0.00000000E+00  1.42986694E+00 -8.98619196E-01
  0.00000000E+00  1.42986694E+00 -8.98619196E-01  0.00000000E+00  1.42986694E+00
 -8.98619196E-01  0.00000000E+00  1.42986694E+00 -8.98619196E-01  0.00000000E+00
  1.42986694E+00 -8.98619196E-01  0.00000000E+00  1.42986694E+00 -8.98619196E-01
  0.00000000E+00  1.42986694E+00 -8.98619196E-01  0.00000000E+00  1.42986694E+00
 -8.98619196E-01  0.00000000E+00  1.42986694E+00 -8.98619196E-01 -1.75108197E-16
 -1.42986694E+00 -8.98619196E-01 -1.75108197E-16 -1.42986694E+00 -8.98619196E-01
 -1.75108197E-16 -1.42986694E+00 -8.98619196E-01 -1.75108197E-16 -1.42986694E+00
 -8.98619196E-01 -1.75108197E-16 -1.42986694E+00 -8.98619196E-01 -1.75108197E-16
 -1.42986694E+00 -8.98619196E-01 -1.75108197E-16 -1.42986694E+00 -8.98619196E-01
 -1.75108197E-16 -1.42986694E+00 -8.98619196E-01 -1.75108197E-16 -1.42986694E+00
 -8.98619196E-01
Num ILSW                                   I              100
ILSW                                       I   N=         100
           0           0           0           0           2           0
           0           0           0           0           0          -1
           5           0           0           0           0           0
           0           0           0           0           0           0
           1           0           0           0           0           0
           0           0      100000           0          -1           0
           0           0           0           0           0           0
           0           0           0           1           0           0
           0 -2000000000           1           0           0           0
           0           0           4          52           0           0
           0           0           0           0           0           0
           0           0           0           3           0           1
           0           0           0           0           0           0
           0           0           0           0           0           0
           0           0           0           0           0           0
           0           0           0           0           0           0
           0           0           0           0
Num RLSW                                   I               52
RLSW                                       R   N=          52
  1.00000000E+00  1.00000000E+00  1.00000000E+00  1.00000000E+00  1.00000000E+00
  0.00000000E+00  0.00000000E+00  1.00000000E+00  0.00000000E+00  0.00000000E+00
  0.00000000E+00  0.00000000E+00  1.00000000E+00  0.00000000E+00  0.00000000E+00
  0.00000000E+00  0.00000000E+00  1.00000000E+00  0.00000000E+00  0.00000000E+00
  0.00000000E+00  0.00000000E+00  1.00000000E+00  0.00000000E+00  0.00000000E+00
  0.00000000E+00  0.00000000E+00  1.00000000E+00  0.00000000E+00  0.00000000E+00
  0.00000000E+00  0.00000000E+00  1.00000000E+00  0.00000000E+00  0.00000000E+00
  0.00000000E+00  0.00000000E+00  0.00000000E+00  1.00000000E+00  1.00000000E+00
  0.00000000E+00  1.00000000E+00  0.00000000E+00  0.00000000E+00  0.00000000E+00
  0.00000000E+00  0.00000000E+00  0.00000000E+00  0.00000000E+00  0.00000000E+00
  0.00000000E+00  0.00000000E+00
MxBond                                     I                2
NBond                                      I   N=           3
           2           1           1
IBond                                      I   N=           6
           2           3           1           0           1           0
RBond                                      R   N=           6
  1.00000000E+00  1.00000000E+00  1.00000000E+00  0.00000000E+00  1.00000000E+00
  0.00000000E+00
Virial Ratio                               R      2.001575386892979E+00
SCF Energy                                 R     -7.606017683964838E+01
Total Energy                               R     -7.606017683964838E+01
RMS Density                                R      4.037983317569696E-09
Job Status                                 I                1
Nuclear derivative order                   I                0
External E-field                           R   N=          35
  0.00000000E+00  0.00000000E+00  0.00000000E+00  0.00000000E+00  0.00000000E+00
  0.00000000E+00  0.00000000E+00  0.00000000E+00  0.00000000E+00  0.00000000E+00
  0.00000000E+00  0.00000000E+00  0.00000000E+00  0.00000000E+00  0.00000000E+00
  0.00000000E+00  0.00000000E+00  0.00000000E+00  0.00000000E+00  0.00000000E+00
  0.00000000E+00  0.00000000E+00  0.00000000E+00  0.00000000E+00  0.00000000E+00
  0.00000000E+00  0.00000000E+00  0.00000000E+00  0.00000000E+00  0.00000000E+00
  0.00000000E+00  0.00000000E+00  0.00000000E+00  0.00000000E+00  0.00000000E+00
IOpCl                                      I                0
IROHF                                      I                0
Alpha Orbital Energies                     R   N=          92
 -2.05684301E+01 -1.35163103E+00 -7.13537208E-01 -5.85596661E-01 -5.10193716E-01
  2.93287594E-02  4.77159275E-02  1.35822908E-01  1.58893946E-01  1.75224120E-01
  1.83186523E-01  2.26905735E-01  2.44938548E-01  2.65541975E-01  2.99535041E-01
  3.09838859E-01  3.65821853E-01  4.37140015E-01  4.65846447E-01  5.98868220E-01
  6.58807574E-01  7.07591979E-01  7.22990115E-01  7.31654035E-01  8.30640776E-01
  8.46622275E-01  8.92539848E-01  9.12294953E-01  9.17785545E-01  9.22448927E-01
  9.31057663E-01  9.60426816E-01  1.02040061E+00  1.04267122E+00  1.08217964E+00
  1.10787563E+00  1.17632794E+00  1.18211007E+00  1.26140373E+00  1.50957471E+00
  1.53219794E+00  1.58096126E+00  1.80634866E+00  1.82309688E+00  1.98143451E+00
  2.11700971E+00  2.26280229E+00  2.31529094E+00  2.32739906E+00  2.41815560E+00
  2.42084126E+00  2.44341982E+00  2.48039671E+00  2.67690506E+00  2.69784488E+00
  2.77093569E+00  2.81129925E+00  2.88343664E+00  3.65191136E+00  3.73642906E+00
  4.01858695E+00  4.08114124E+00  4.15761665E+00  4.24767093E+00  4.28137174E+00
  4.37118058E+00  4.37643719E+00  4.40427274E+00  4.51871022E+00  4.72504596E+00
  4.84219281E+00  5.14377578E+00  5.15097934E+00  5.24297045E+00  5.31823418E+00
  5.51940365E+00  5.65502563E+00  6.17919913E+00  6.51134263E+00  6.70852901E+00
  6.90022393E+00  7.12950833E+00  7.25043040E+00  7.28902286E+00  7.31039679E+00
  7.33171254E+00  7.35295683E+00  7.52629453E+00  7.88872243E+00  7.92168424E+00
  8.79732137E+00  1.56759291E+01
Alpha MO coefficients                      R   N=        8464
  9.76710710E-01 -8.99671291E-03  4.35967679E-02  8.37351477E-04  2.65493494E-04
  0.00000000E+00  0.00000000E+00 -1.87362909E-03  0.00000000E+00  0.00000000E+00
  1.59707697E-03  0.00000000E+00  0.00000000E+00 -2.68758317E-04  0.00000000E+00
  0.00000000E+00 -1.68751266E-04  1.15787761E-05  0.00000000E+00  0.00000000E+00
 -6.44778526E-05  0.00000000E+00 -8.74545272E-05  0.00000000E+00  0.00000000E+00
  5.31337274E-04  0.00000000E+00  8.68557023E-05  0.00000000E+00  0.00000000E+00
 -1.19618854E-04  0.00000000E+00  2.08308357E-05  0.00000000E+00  0.00000000E+00
  3.28671817E-06  0.00000000E+00  0.00000000E+00  0.00000000E+00 -8.47598435E-05
  0.00000000E+00  0.00000000E+00 -1.59635068E-04  0.00000000E+00  0.00000000E+00
  0.00000000E+00  4.97841745E-04  9.73627324E-04 -2.16387759E-04  2.54226296E-05
  0.00000000E+00 -1.62135615E-04  1.03079917E-04  0.00000000E+00 -6.62840479E-04
  6.08455809E-04  0.00000000E+00 -1.08988817E-04  8.00727069E-05 -3.86153303E-05
  0.00000000E+00  1.16242526E-04  4.40938366E-05  0.00000000E+00  5.47905003E-05
  0.00000000E+00 -3.99907277E-04 -2.33067312E-04  0.00000000E+00  4.97841745E-04
  9.73627324E-04 -2.16387759E-04  2.54226296E-05  0.00000000E+00  1.62135615E-04
  1.03079917E-04  0.00000000E+00  6.62840479E-04  6.08455809E-04  0.00000000E+00
  1.08988817E-04  8.00727069E-05 -3.86153303E-05  0.00000000E+00 -1.16242526E-04
  4.40938366E-05  0.00000000E+00  5.47905003E-05  0.00000000E+00  3.99907277E-04
 -2.33067312E-04  0.00000000E+00 -2.01366041E-01  4.87566288E-01  1.32775492E-01
  2.94395135E-01  3.47185162E-02  0.00000000E+00  0.00000000E+00 -4.44143753E-02
  0.00000000E+00  0.00000000E+00 -6.32865715E-02  0.00000000E+00  0.00000000E+00
 -1.75047625E-02  0.00000000E+00  0.00000000E+00 -2.82625359E-03  9.78757887E-04
  0.00000000E+00  0.00000000E+00 -3.57745727E-03  0.00000000E+00  3.66541921E-03
  0.00000000E+00  0.00000000E+00 -8.32985205E-03  0.00000000E+00  7.84132836E-04
  0.00000000E+00  0.00000000E+00  3.07915912E-03  0.00000000E+00  9.03165458E-04
  0.00000000E+00  0.00000000E+00  2.65326536E-03  0.00000000E+00  0.00000000E+00
  0.00000000E+00 -5.39099975E-04  0.00000000E+00  0.00000000E+00  4.84247767E-04
  0.00000000E+00  0.00000000E+00  0.00000000E+00  8.80044899E-02  7.42163714E-02
 -1.46993205E-02 -1.37341352E-03  0.00000000E+00 -1.05521432E-02  7.48897405E-03
  0.00000000E+00 -7.86830850E-03  5.56190713E-03  0.00000000E+00  5.05657609E-03
 -4.28642594E-03  1.02330872E-04  0.00000000E+00 -2.10036145E-03 -1.29132414E-03
  0.00000000E+00 -1.55601812E-05  0.00000000E+00  8.33182621E-04  4.54674250E-04
  0.00000000E+00  8.80044899E-02  7.42163714E-02 -1.46993205E-02 -1.37341352E-03
  0.00000000E+00  1.05521432E-02  7.48897405E-03  0.00000000E+00  7.86830850E-03
  5.56190713E-03  0.00000000E+00 -5.05657609E-03 -4.28642594E-03  1.02330872E-04
  0.00000000E+00  2.10036145E-03 -1.29132414E-03  0.00000000E+00 -1.55601812E-05
  0.00000000E+00 -8.33182621E-04  4.54674250E-04  0.00000000E+00  0.00000000E+00
  0.00000000E+00  0.00000000E+00  0.00000000E+00  0.00000000E+00  0.00000000E+00
  2.84174166E-01  0.00000000E+00  0.00000000E+00  3.39736037E-01  0.00000000E+00
  0.00000000E+00  1.59018117E-01  0.00000000E+00  0.00000000E+00  8.44314088E-03
  0.00000000E+00  0.00000000E+00  0.00000000E+00 -1.27337208E-02  0.00000000E+00
  0.00000000E+00  0.00000000E+00  0.00000000E+00 -2.33639702E-02  0.00000000E+00
  0.00000000E+00  0.00000000E+00  0.00000000E+00 -6.92866568E-04  0.00000000E+00
  0.00000000E+00  0.00000000E+00  0.00000000E+00 -9.74733348E-05  0.00000000E+00
  0.00000000E+00  0.00000000E+00 -2.73915641E-03  0.00000000E+00  0.00000000E+00
  2.39118820E-03  0.00000000E+00  0.00000000E+00  0.00000000E+00 -1.79370239E-03
  1.39571025E-01  2.21789556E-01  3.64120647E-02 -4.76688954E-03  0.00000000E+00
 -9.24160985E-03  1.26713049E-02  0.00000000E+00 -1.91699762E-02  2.81728210E-02
  0.00000000E+00  8.27159582E-03  2.04909669E-04  2.17103002E-03  0.00000000E+00
 -6.20090579E-03 -3.08925886E-03  0.00000000E+00  2.30311593E-03  0.00000000E+00
 -2.69454032E-03  9.44587947E-04  0.00000000E+00 -1.39571025E-01 -2.21789556E-01
 -3.64120647E-02  4.76688954E-03  0.00000000E+00 -9.24160985E-03 -1.26713049E-02
  0.00000000E+00 -1.91699762E-02 -2.81728210E-02  0.00000000E+00  8.27159582E-03
 -2.04909669E-04 -2.17103002E-03  0.00000000E+00 -6.20090579E-03  3.08925886E-03
  0.00000000E+00 -2.30311593E-03  0.00000000E+00 -2.69454032E-03 -9.44587947E-04
  0.00000000E+00 -6.50290350E-02  1.76363764E-01  5.25764264E-02  3.28542377E-01
  8.30364558E-02  0.00000000E+00  0.00000000E+00  3.11557565E-01  0.00000000E+00
  0.00000000E+00  3.82177615E-01  0.00000000E+00  0.00000000E+00  2.13261467E-01
  0.00000000E+00  0.00000000E+00  1.33474404E-02 -5.90956817E-03  0.00000000E+00
  0.00000000E+00  3.61151854E-03  0.00000000E+00 -1.61108147E-02  0.00000000E+00
  0.00000000E+00  1.19873191E-03  0.00000000E+00 -4.14082341E-03  0.00000000E+00
  0.00000000E+00 -9.14190780E-03  0.00000000E+00  6.53622648E-04  0.00000000E+00
  0.00000000E+00 -2.75453618E-03  0.00000000E+00  0.00000000E+00  0.00000000E+00
  1.63777038E-03  0.00000000E+00  0.00000000E+00  4.26853539E-04  0.00000000E+00
  0.00000000E+00  0.00000000E+00 -8.57099526E-02 -1.78345717E-01 -6.46655995E-02
 -1.85062535E-03  0.00000000E+00  9.59492476E-03  1.33471125E-03  0.00000000E+00
  3.25140751E-02 -1.66914015E-03  0.00000000E+00  4.71338403E-03  8.26012280E-03
  1.96825789E-03  0.00000000E+00  1.95973163E-03  3.21091580E-03  0.00000000E+00
  1.76032970E-03  0.00000000E+00 -1.92823655E-03  2.27075211E-03  0.00000000E+00
 -8.57099526E-02 -1.78345717E-01 -6.46655995E-02 -1.85062535E-03  0.00000000E+00
 -9.59492476E-03  1.33471125E-03  0.00000000E+00 -3.25140751E-02 -1.66914015E-03
  0.00000000E+00 -4.71338403E-03  8.26012280E-03  1.96825789E-03  0.00000000E+00
 -1.95973163E-03  3.21091580E-03  0.00000000E+00  1.76032970E-03  0.00000000E+00
  1.92823655E-03  2.27075211E-03  0.00000000E+00  0.00000000E+00  0.00000000E+00
  0.00000000E+00  0.00000000E+00  0.00000000E+00  3.54174307E-01  0.00000000E+00
  0.00000000E+00  4.50260205E-01  0.00000000E+00  0.00000000E+00  3.25994036E-01
  0.00000000E+00  0.00000000E+00  3.33386028E-02  0.00000000E+00  0.00000000E+00
  0.00000000E+00 -5.78011721E-03  0.00000000E+00  0.00000000E+00  0.00000000E+00
  0.00000000E+00 -1.42982230E-02  0.00000000E+00  0.00000000E+00  0.00000000E+00
  0.00000000E+00 -5.44738491E-03  0.00000000E+00  0.00000000E+00  0.00000000E+00
  0.00000000E+00  1.38174711E-03  0.00000000E+00  0.00000000E+00  0.00000000E+00
 -3.51436083E-03  0.00000000E+00  0.00000000E+00  8.62561129E-04  0.00000000E+00
  0.00000000E+00  0.00000000E+00 -1.30830970E-03  0.00000000E+00  0.00000000E+00
  0.00000000E+00  0.00000000E+00  0.00000000E+00  1.05880496E-02  0.00000000E+00
  0.00000000E+00  2.98532117E-02  0.00000000E+00  0.00000000E+00  1.83845006E-02
  0.00000000E+00  0.00000000E+00  0.00000000E+00  2.91466436E-03  0.00000000E+00
  0.00000000E+00 -3.77089200E-03  0.00000000E+00  4.27960363E-03  0.00000000E+00
  0.00000000E+00 -6.04161855E-03  0.00000000E+00  0.00000000E+00  0.00000000E+00
  0.00000000E+00  1.05880496E-02  0.00000000E+00  0.00000000E+00  2.98532117E-02
  0.00000000E+00  0.00000000E+00  1.83845006E-02  0.00000000E+00  0.00000000E+00
  0.00000000E+00  2.91466436E-03  0.00000000E+00  0.00000000E+00  3.77089200E-03
  0.00000000E+00  4.27960363E-03  0.00000000E+00  0.00000000E+00  6.04161855E-03
 -2.28875058E-02  5.65475606E-02  1.24779013E-02  7.97962775E-01  2.37751449E+00
  0.00000000E+00  0.00000000E+00 -2.92412095E-02  0.00000000E+00  0.00000000E+00
 -7.24817329E-02  0.00000000E+00  0.00000000E+00 -3.50442060E-01  0.00000000E+00
  0.00000000E+00 -2.22820672E-01 -2.13236550E-05  0.00000000E+00  0.00000000E+00
  9.68395595E-04  0.00000000E+00  6.96451791E-03  0.00000000E+00  0.00000000E+00
 -2.29271564E-02  0.00000000E+00 -7.73030398E-04  0.00000000E+00  0.00000000E+00
 -5.49690670E-02  0.00000000E+00  6.69622756E-04  0.00000000E+00  0.00000000E+00
  1.33764137E-03  0.00000000E+00  0.00000000E+00  0.00000000E+00  4.54747891E-03
  0.00000000E+00  0.00000000E+00  1.12285153E-02  0.00000000E+00  0.00000000E+00
  0.00000000E+00 -1.78913415E-03 -2.42003574E-01 -9.48004923E-01 -8.56046734E-01
  0.00000000E+00 -2.05367498E-03  3.72585688E-04  0.00000000E+00  7.87147310E-02
 -6.04419541E-02  0.00000000E+00  2.17303433E-01 -1.98128138E-01 -1.11349556E-03
  0.00000000E+00  4.85891365E-03  2.31135583E-03  0.00000000E+00 -3.18279442E-03
  0.00000000E+00  2.73916817E-02  1.99181533E-02  0.00000000E+00 -1.78913415E-03
 -2.42003574E-01 -9.48004923E-01 -8.56046734E-01  0.00000000E+00  2.05367498E-03
  3.72585688E-04  0.00000000E+00 -7.87147310E-02 -6.04419541E-02  0.00000000E+00
 -2.17303433E-01 -1.98128138E-01 -1.11349556E-03  0.00000000E+00 -4.85891365E-03
  2.31135583E-03  0.00000000E+00 -3.18279442E-03  0.00000000E+00 -2.73916817E-02
  1.99181533E-02  0.00000000E+00  0.00000000E+00  0.00000000E+00  0.00000000E+00
  0.00000000E+00  0.00000000E+00  0.00000000E+00 -2.91306115E-02  0.00000000E+00
  0.00000000E+00 -7.40144560E-02  0.00000000E+00  0.00000000E+00 -5.32572654E-01
  0.00000000E+00  0.00000000E+00 -1.12874705E+00  0.00000000E+00  0.00000000E+00
  0.00000000E+00 -5.34961236E-05  0.00000000E+00  0.00000000E+00  0.00000000E+00
  0.00000000E+00  3.01406794E-02  0.00000000E+00  0.00000000E+00  0.00000000E+00
  0.00000000E+00  1.27434352E-01  0.00000000E+00  0.00000000E+00  0.00000000E+00
  0.00000000E+00 -8.88477715E-04  0.00000000E+00  0.00000000E+00  0.00000000E+00
  2.19348218E-04  0.00000000E+00  0.00000000E+00 -4.31467060E-03  0.00000000E+00
  0.00000000E+00  0.00000000E+00  9.11463688E-03 -6.33439653E-03  2.55037857E-01
  1.37261499E+00  3.42435870E+00  0.00000000E+00 -5.54835402E-04 -1.25858453E-03
  0.00000000E+00 -6.58415747E-02  7.04900968E-02  0.00000000E+00 -2.80325420E-01
  3.24536963E-01 -4.03543936E-05  0.00000000E+00 -4.54991584E-03 -3.54980653E-03
  0.00000000E+00  1.50686197E-02  0.00000000E+00 -3.26551632E-02 -3.37387113E-03
  0.00000000E+00  6.33439653E-03 -2.55037857E-01 -1.37261499E+00 -3.42435870E+00
  0.00000000E+00 -5.54835402E-04  1.25858453E-03  0.00000000E+00 -6.58415747E-02
 -7.04900968E-02  0.00000000E+00 -2.80325420E-01 -3.24536963E-01  4.03543936E-05
  0.00000000E+00 -4.54991584E-03  3.54980653E-03  0.00000000E+00 -1.50686197E-02
  0.00000000E+00 -3.26551632E-02  3.37387113E-03  0.00000000E+00  1.43667736E-02
 -5.85747712E-02 -1.90119214E-02  1.57576776E+00  6.72200544E+00  0.00000000E+00
  0.00000000E+00  9.06330327E-02  0.00000000E+00  0.00000000E+00  3.56626263E-02
  0.00000000E+00  0.00000000E+00 -4.20973695E-01  0.00000000E+00  0.00000000E+00
 -2.05523939E+00 -1.74409171E-04  0.00000000E+00  0.00000000E+00 -7.45004919E-04
  0.00000000E+00 -8.00973388E-03  0.00000000E+00  0.00000000E+00 -1.90585087E-02
  0.00000000E+00  8.48681139E-02  0.00000000E+00  0.00000000E+00 -6.05763935E-02
  0.00000000E+00  1.94691635E-03  0.00000000E+00  0.00000000E+00  2.50510819E-03
  0.00000000E+00  0.00000000E+00  0.00000000E+00 -4.16518488E-03  0.00000000E+00
  0.00000000E+00 -4.19067372E-03  0.00000000E+00  0.00000000E+00  0.00000000E+00
  1.01588445E-03 -2.44054305E-01 -3.22407148E+00 -7.35806821E-01  0.00000000E+00
  5.83480744E-04 -8.45586388E-05  0.00000000E+00  2.08874195E-01 -1.36507011E-01
  0.00000000E+00  7.69281393E-01 -4.77656745E-01 -1.77504525E-03  0.00000000E+00
  1.05050323E-02  8.25171926E-03  0.00000000E+00  1.46171406E-02  0.00000000E+00
  8.65483605E-02  5.82687545E-02  0.00000000E+00  1.01588445E-03 -2.44054305E-01
 -3.22407148E+00 -7.35806821E-01  0.00000000E+00 -5.83480744E-04 -8.45586388E-05
  0.00000000E+00 -2.08874195E-01 -1.36507011E-01  0.00000000E+00 -7.69281393E-01
 -4.77656745E-01 -1.77504525E-03  0.00000000E+00 -1.05050323E-02  8.25171926E-03
  0.00000000E+00  1.46171406E-02  0.00000000E+00 -8.65483605E-02  5.82687545E-02
  0.00000000E+00  0.00000000E+00  0.00000000E+00  0.00000000E+00  0.00000000E+00
  0.00000000E+00 -8.77183183E-02  0.00000000E+00  0.00000000E+00 -8.04390436E-02
  0.00000000E+00  0.00000000E+00  3.82894712E-02  0.00000000E+00  0.00000000E+00
  1.81917446E+00  0.00000000E+00  0.00000000E+00  0.00000000E+00 -1.91178721E-03
  0.00000000E+00  0.00000000E+00  0.00000000E+00  0.00000000E+00  2.83491554E-02
  0.00000000E+00  0.00000000E+00  0.00000000E+00  0.00000000E+00 -2.04600688E-01
  0.00000000E+00  0.00000000E+00  0.00000000E+00  0.00000000E+00 -2.31012462E-03
  0.00000000E+00  0.00000000E+00  0.00000000E+00  4.03433900E-03  0.00000000E+00
  0.00000000E+00  8.13174881E-03  0.00000000E+00  0.00000000E+00  0.00000000E+00
 -1.10576251E-02  0.00000000E+00  0.00000000E+00  0.00000000E+00  0.00000000E+00
  0.00000000E+00  4.72807520E-04  0.00000000E+00  0.00000000E+00 -3.90297719E-02
  0.00000000E+00  0.00000000E+00 -5.61299247E-01  0.00000000E+00  0.00000000E+00
  0.00000000E+00  2.45924615E-03  0.00000000E+00  0.00000000E+00 -2.01979991E-03
  0.00000000E+00 -4.34111211E-02  0.00000000E+00  0.00000000E+00  6.78079017E-02
  0.00000000E+00  0.00000000E+00  0.00000000E+00  0.00000000E+00  4.72807520E-04
  0.00000000E+00  0.00000000E+00 -3.90297719E-02  0.00000000E+00  0.00000000E+00
 -5.61299247E-01  0.00000000E+00  0.00000000E+00  0.00000000E+00  2.45924615E-03
  0.00000000E+00  0.00000000E+00  2.01979991E-03  0.00000000E+00 -4.34111211E-02
  0.00000000E+00  0.00000000E+00 -6.78079017E-02  4.97858074E-02 -1.37517350E-01
 -5.62044432E-02  1.62765476E+00  3.97756391E+00  0.00000000E+00  0.00000000E+00
  1.81659916E-02  0.00000000E+00  0.00000000E+00 -5.90968909E-02  0.00000000E+00
  0.00000000E+00 -5.65030575E-01  0.00000000E+00  0.00000000E+00  9.26690181E-01
 -2.23254840E-03  0.00000000E+00  0.00000000E+00  2.60496754E-03  0.00000000E+00
  1.75842368E-02  0.00000000E+00  0.00000000E+00 -7.21906371E-02  0.00000000E+00
 -1.21271845E-01  0.00000000E+00  0.00000000E+00 -9.81705871E-02  0.00000000E+00
  1.32719091E-03  0.00000000E+00  0.00000000E+00  3.91163905E-03  0.00000000E+00
  0.00000000E+00  0.00000000E+00  2.00238242E-02  0.00000000E+00  0.00000000E+00
  2.55079128E-02  0.00000000E+00  0.00000000E+00  0.00000000E+00  3.04071151E-02
 -4.94723829E-01 -1.17434119E+00 -6.95010785E-01  0.00000000E+00  1.22911665E-02
 -7.82814554E-03  0.00000000E+00  1.85830842E-01 -1.84761403E-01  0.00000000E+00
  7.78926130E-01 -8.96487620E-01 -2.69943661E-03  0.00000000E+00  1.41922963E-02
  3.91483350E-03  0.00000000E+00 -2.50982160E-02  0.00000000E+00  1.08245088E-01
  6.40113988E-02  0.00000000E+00  3.04071151E-02 -4.94723829E-01 -1.17434119E+00
 -6.95010785E-01  0.00000000E+00 -1.22911665E-02 -7.82814554E-03  0.00000000E+00
 -1.85830842E-01 -1.84761403E-01  0.00000000E+00 -7.78926130E-01 -8.96487620E-01
 -2.69943661E-03  0.00000000E+00 -1.41922963E-02  3.91483350E-03  0.00000000E+00
 -2.50982160E-02  0.00000000E+00 -1.08245088E-01  6.40113988E-02  0.00000000E+00
  0.00000000E+00  0.00000000E+00  0.00000000E+00  0.00000000E+00  0.00000000E+00
  0.00000000E+00  9.43174447E-02  0.00000000E+00  0.00000000E+00  1.74005293E-03
  0.00000000E+00  0.00000000E+00 -1.60711567E+00  0.00000000E+00  0.00000000E+00
 -3.61473482E+00  0.00000000E+00  0.00000000E+00  0.00000000E+00 -4.11622802E-03
  0.00000000E+00  0.00000000E+00  0.00000000E+00  0.00000000E+00  8.93780347E-02
  0.00000000E+00  0.00000000E+00  0.00000000E+00  0.00000000E+00  4.63976922E-01
  0.00000000E+00  0.00000000E+00  0.00000000E+00  0.00000000E+00 -2.83333132E-03
  0.00000000E+00  0.00000000E+00  0.00000000E+00 -1.08344775E-03  0.00000000E+00