title                                                                   
SP        RHF                                                         Aug-CC-pVQZ         
Number of atoms                            I                3
Info1-9                                    I   N=           9
          14          12           0           0           0         110
           1           1           2
Full Title                                 C   N=           1
title       
Route                                      C   N=           3
#p hf aug-cc-pvqz output=wfx        
Charge                                     I                0
Multiplicity                               I                1
Number of electrons                        I               10
Number of alpha electrons                  I                5
Number of beta electrons                   I                5
Number of basis functions                  I              172
Number of independent functions            I              172
Number of point charges in /Mol/           I                0
Number of translation vectors              I                0
Atomic numbers                             I   N=           3
           8           1           1
Nuclear charges                            R   N=           3
  8.00000000E+00  1.00000000E+00  1.00000000E+00
Current cartesian coordinates              R   N=           9
  1.37561390E-17  1.37561390E-17  2.24654421E-01  2.07637740E-16  1.42986694E+00
 -8.98619574E-01 -4.92795049E-16 -1.42986694E+00 -8.98619574E-01
Number of symbols in /Mol/                 I                0
Force Field                                I                0
Atom Types                                 C   N=           3
                                    
Int Atom Types                             I   N=           3
           0           0           0
MM charges                                 R   N=           3
  0.00000000E+00  0.00000000E+00  0.00000000E+00
Integer atomic weights                     I   N=           3
          16           1           1
Real atomic weights                        R   N=           3
  1.59949146E+01  1.00782504E+00  1.00782504E+00
Atom fragment info                         I   N=           3
           0           0           0
Atom residue num                           I   N=           3
           0           0           0
Nuclear spins                              I   N=           3
           0           1           1
Nuclear ZEff                               R   N=           3
 -5.60000000E+00 -1.00000000E+00 -1.00000000E+00
Nuclear ZNuc                               R   N=           3
  8.00000000E+00  1.00000000E+00  1.00000000E+00
Nuclear QMom                               R   N=           3
  0.00000000E+00  0.00000000E+00  0.00000000E+00
Nuclear GFac                               R   N=           3
  0.00000000E+00  2.79284600E+00  2.79284600E+00
MicOpt                                     I   N=           3
          -1          -1          -1
Number of residues                         I                0
Number of secondary structures             I                0
SymInf integers                            I   N=          26
           2           4           1           1           1          -1
          -1           1          -1           1           1           1
          -1           1           0           0           0           0
           0           0           0           0           0           0
           0           0
RotTr to input orientation                 R   N=          12
  1.00000000E+00 -1.83697020E-16 -6.12323400E-17  1.83697020E-16  1.00000000E+00
 -6.12323400E-17  6.12323400E-17  6.12323400E-17  1.00000000E+00  0.00000000E+00
  0.00000000E+00 -3.77945225E-07
Number of contracted shells                I               48
Number of primitive shells                 I               67
Pure/Cartesian d shells                    I                0
Pure/Cartesian f shells                    I                0
Highest angular momentum                   I                4
Largest degree of contraction              I                8
Shell types                                I   N=          48
           0           0           0           0           0           0
           1           1           1           1           1          -2
          -2          -2          -2          -3          -3          -3
          -4          -4           0           0           0           0
           0           1           1           1           1          -2
          -2          -2          -3          -3           0           0
           0           0           0           1           1           1
           1          -2          -2          -2          -3          -3
Number of primitives per shell             I   N=          48
           8           7           1           1           1           1
           3           1           1           1           1           1
           1           1           1           1           1           1
           1           1           3           1           1           1
           1           1           1           1           1           1
           1           1           1           1           3           1
           1           1           1           1           1           1
           1           1           1           1           1           1
Shell to atom map                          I   N=          48
           1           1           1           1           1           1
           1           1           1           1           1           1
           1           1           1           1           1           1
           1           1           2           2           2           2
           2           2           2           2           2           2
           2           2           2           2           3           3
           3           3           3           3           3           3
           3           3           3           3           3           3
Primitive exponents                        R   N=          67
  6.14200000E+04  9.19900000E+03  2.09100000E+03  5.90900000E+02  1.92300000E+02
  6.93200000E+01  2.69700000E+01  1.11000000E+01  9.19900000E+03  5.90900000E+02
  1.92300000E+02  6.93200000E+01  2.69700000E+01  1.11000000E+01  4.68200000E+00
  1.42800000E+00  5.54700000E-01  2.06700000E-01  6.95900000E-02  6.34200000E+01
  1.46600000E+01  4.45900000E+00  1.53100000E+00  5.30200000E-01  1.75000000E-01
  5.34800000E-02  3.77500000E+00  1.30000000E+00  4.44000000E-01  1.54000000E-01
  2.66600000E+00  8.59000000E-01  3.24000000E-01  1.84600000E+00  7.14000000E-01
  8.26400000E+01  1.24100000E+01  2.82400000E+00  7.97700000E-01  2.58100000E-01
  8.98900000E-02  2.36300000E-02  2.29200000E+00  8.38000000E-01  2.92000000E-01
  8.48000000E-02  2.06200000E+00  6.62000000E-01  1.90000000E-01  1.39700000E+00
  3.60000000E-01  8.26400000E+01  1.24100000E+01  2.82400000E+00  7.97700000E-01
  2.58100000E-01  8.98900000E-02  2.36300000E-02  2.29200000E+00  8.38000000E-01
  2.92000000E-01  8.48000000E-02  2.06200000E+00  6.62000000E-01  1.90000000E-01
  1.39700000E+00  3.60000000E-01
Contraction coefficients                   R   N=          67
  1.55518410E-04  1.18440583E-03  6.24876910E-03  2.55912766E-02  8.77566935E-02
  2.30729100E-01  4.42804305E-01  3.33680462E-01 -7.85827887E-06 -4.74592902E-04
 -2.15916299E-03 -2.37542047E-02 -1.01921529E-01 -4.53228587E-01 -4.84793012E-01
  1.00000000E+00  1.00000000E+00  1.00000000E+00  1.00000000E+00  3.13275025E-02
  2.16654248E-01  8.35242842E-01  1.00000000E+00  1.00000000E+00  1.00000000E+00
  1.00000000E+00  1.00000000E+00  1.00000000E+00  1.00000000E+00  1.00000000E+00
  1.00000000E+00  1.00000000E+00  1.00000000E+00  1.00000000E+00  1.00000000E+00
  2.29507578E-02  1.75540118E-01  8.64703551E-01  1.00000000E+00  1.00000000E+00
  1.00000000E+00  1.00000000E+00  1.00000000E+00  1.00000000E+00  1.00000000E+00
  1.00000000E+00  1.00000000E+00  1.00000000E+00  1.00000000E+00  1.00000000E+00
  1.00000000E+00  2.29507578E-02  1.75540118E-01  8.64703551E-01  1.00000000E+00
  1.00000000E+00  1.00000000E+00  1.00000000E+00  1.00000000E+00  1.00000000E+00
  1.00000000E+00  1.00000000E+00  1.00000000E+00  1.00000000E+00  1.00000000E+00
  1.00000000E+00  1.00000000E+00
Coordinates of each shell                  R   N=         144
  6.92271048E-34 -1.38454210E-33  2.24654799E-01  6.92271048E-34 -1.38454210E-33
  2.24654799E-01  6.92271048E-34 -1.38454210E-33  2.24654799E-01  6.92271048E-34
 -1.38454210E-33  2.24654799E-01  6.92271048E-34 -1.38454210E-33  2.24654799E-01
  6.92271048E-34 -1.38454210E-33  2.24654799E-01  6.92271048E-34 -1.38454210E-33
  2.24654799E-01  6.92271048E-34 -1.38454210E-33  2.24654799E-01  6.92271048E-34
 -1.38454210E-33  2.24654799E-01  6.92271048E-34 -1.38454210E-33  2.24654799E-01
  6.92271048E-34 -1.38454210E-33  2.24654799E-01  6.92271048E-34 -1.38454210E-33
  2.24654799E-01  6.92271048E-34 -1.38454210E-33  2.24654799E-01  6.92271048E-34
 -1.38454210E-33  2.24654799E-01  6.92271048E-34 -1.38454210E-33  2.24654799E-01
  6.92271048E-34 -1.38454210E-33  2.24654799E-01  6.92271048E-34 -1.38454210E-33
  2.24654799E-01  6.92271048E-34 -1.38454210E-33  2.24654799E-01  6.92271048E-34
 -1.38454210E-33  2.24654799E-01  6.92271048E-34 -1.38454210E-33  2.24654799E-01
  0.00000000E+00  1.42986694E+00 -8.98619196E-01  0.00000000E+00  1.42986694E+00
 -8.98619196E-01  0.00000000E+00  1.42986694E+00 -8.98619196E-01  0.00000000E+00
  1.42986694E+00 -8.98619196E-01  0.00000000E+00  1.42986694E+00 -8.98619196E-01
  0.00000000E+00  1.42986694E+00 -8.98619196E-01  0.00000000E+00  1.42986694E+00
 -8.98619196E-01  0.00000000E+00  1.42986694E+00 -8.98619196E-01  0.00000000E+00
  1.42986694E+00 -8.98619196E-01  0.00000000E+00  1.42986694E+00 -8.98619196E-01
  0.00000000E+00  1.42986694E+00 -8.98619196E-01  0.00000000E+00  1.42986694E+00
 -8.98619196E-01  0.00000000E+00  1.42986694E+00 -8.98619196E-01  0.00000000E+00
  1.42986694E+00 -8.98619196E-01 -1.75108197E-16 -1.42986694E+00 -8.98619196E-01
 -1.75108197E-16 -1.42986694E+00 -8.98619196E-01 -1.75108197E-16 -1.42986694E+00
 -8.98619196E-01 -1.75108197E-16 -1.42986694E+00 -8.98619196E-01 -1.75108197E-16
 -1.42986694E+00 -8.98619196E-01 -1.75108197E-16 -1.42986694E+00 -8.98619196E-01
 -1.75108197E-16 -1.42986694E+00 -8.98619196E-01 -1.75108197E-16 -1.42986694E+00
 -8.98619196E-01 -1.75108197E-16 -1.42986694E+00 -8.98619196E-01 -1.75108197E-16
 -1.42986694E+00 -8.98619196E-01 -1.75108197E-16 -1.42986694E+00 -8.98619196E-01
 -1.75108197E-16 -1.42986694E+00 -8.98619196E-01 -1.75108197E-16 -1.42986694E+00
 -8.98619196E-01 -1.75108197E-16 -1.42986694E+00 -8.98619196E-01
Num ILSW                                   I              100
ILSW                                       I   N=         100
           0           0           0           0           2           0
           0           0           0           0           0          -1
           5           0           0           0           0           0
           0           0           0           0           0           0
           1           0           0           0           0           0
           0           0      100000           0          -1           0
           0           0           0           0           0           0
           0           0           0           1           0           0
           0 -2000000000           1           0           0           0
           0           0           4          52           0           0
           0           0           0           0           0           0
           0           0           0           3           0           1
           0           0           0           0           0           0
           0           0           0           0           0           0
           0           0           0           0           0           0
           0           0           0           0           0           0
           0           0           0           0
Num RLSW                                   I               52
RLSW                                       R   N=          52
  1.00000000E+00  1.00000000E+00  1.00000000E+00  1.00000000E+00  1.00000000E+00
  0.00000000E+00  0.00000000E+00  1.00000000E+00  0.00000000E+00  0.00000000E+00
  0.00000000E+00  0.00000000E+00  1.00000000E+00  0.00000000E+00  0.00000000E+00
  0.00000000E+00  0.00000000E+00  1.00000000E+00  0.00000000E+00  0.00000000E+00
  0.00000000E+00  0.00000000E+00  1.00000000E+00  0.00000000E+00  0.00000000E+00
  0.00000000E+00  0.00000000E+00  1.00000000E+00  0.00000000E+00  0.00000000E+00
  0.00000000E+00  0.00000000E+00  1.00000000E+00  0.00000000E+00  0.00000000E+00
  0.00000000E+00  0.00000000E+00  0.00000000E+00  1.00000000E+00  1.00000000E+00
  0.00000000E+00  1.00000000E+00  0.00000000E+00  0.00000000E+00  0.00000000E+00
  0.00000000E+00  0.00000000E+00  0.00000000E+00  0.00000000E+00  0.00000000E+00
  0.00000000E+00  0.00000000E+00
MxBond                                     I                2
NBond                                      I   N=           3
           2           1           1
IBond                                      I   N=           6
           2           3           1           0           1           0
RBond                                      R   N=           6
  1.00000000E+00  1.00000000E+00  1.00000000E+00  0.00000000E+00  1.00000000E+00
  0.00000000E+00
Virial Ratio                               R      2.001188048691581E+00
SCF Energy                                 R     -7.606553976106755E+01
Total Energy                               R     -7.606553976106755E+01
RMS Density                                R      9.501932826412358E-09
Job Status                                 I                1
Nuclear derivative order                   I                0
External E-field                           R   N=          35
  0.00000000E+00  0.00000000E+00  0.00000000E+00  0.00000000E+00  0.00000000E+00
  0.00000000E+00  0.00000000E+00  0.00000000E+00  0.00000000E+00  0.00000000E+00
  0.00000000E+00  0.00000000E+00  0.00000000E+00  0.00000000E+00  0.00000000E+00
  0.00000000E+00  0.00000000E+00  0.00000000E+00  0.00000000E+00  0.00000000E+00
  0.00000000E+00  0.00000000E+00  0.00000000E+00  0.00000000E+00  0.00000000E+00
  0.00000000E+00  0.00000000E+00  0.00000000E+00  0.00000000E+00  0.00000000E+00
  0.00000000E+00  0.00000000E+00  0.00000000E+00  0.00000000E+00  0.00000000E+00
IOpCl                                      I                0
IROHF                                      I                0
Alpha Orbital Energies                     R   N=         172
 -2.05659789E+01 -1.35090378E+00 -7.13504649E-01 -5.85643434E-01 -5.10324651E-01
  2.68488740E-02  4.31102953E-02  1.14059298E-01  1.33610624E-01  1.51126321E-01
  1.58731568E-01  1.84819779E-01  1.97032435E-01  2.09390797E-01  2.37090568E-01
  2.56938270E-01  2.91624304E-01  3.57274184E-01  3.89610922E-01  4.69604048E-01
  5.08814646E-01  5.41961739E-01  5.47646816E-01  5.56382156E-01  6.14360072E-01
  6.32481271E-01  6.47128338E-01  6.63456482E-01  6.65908965E-01  6.84457540E-01
  7.06603159E-01  7.19016364E-01  7.69552948E-01  7.88430687E-01  8.01569501E-01
  8.02524283E-01  8.43141620E-01  8.54132921E-01  9.68429041E-01  1.12277061E+00
  1.13647054E+00  1.20788488E+00  1.33202161E+00  1.43996278E+00  1.48171890E+00
  1.50937553E+00  1.51205102E+00  1.52679285E+00  1.55386943E+00  1.59041781E+00
  1.62071806E+00  1.63684080E+00  1.66199054E+00  1.66464677E+00  1.68905174E+00
  1.70264588E+00  1.73675807E+00  1.75186931E+00  1.76630535E+00  1.77501893E+00
  1.84311652E+00  1.86502665E+00  1.89426644E+00  1.91586576E+00  1.98255400E+00
  2.00838056E+00  2.03427656E+00  2.04008058E+00  2.10077514E+00  2.20569802E+00
  2.21646077E+00  2.31284600E+00  2.43477162E+00  2.62379058E+00  2.62936458E+00
  2.88468940E+00  2.95555770E+00  2.99320785E+00  3.04042758E+00  3.05422271E+00
  3.08411139E+00  3.26523643E+00  3.30130435E+00  3.30904689E+00  3.48808194E+00
  3.58799797E+00  3.64144993E+00  3.68723490E+00  3.71792365E+00  3.77649048E+00
  3.92364573E+00  4.07830455E+00  4.16709583E+00  4.16710785E+00  4.17822593E+00
  4.17831207E+00  4.23325145E+00  4.32774808E+00  4.43313378E+00  4.57774621E+00
  4.72425568E+00  4.74402476E+00  4.77736158E+00  4.77808905E+00  4.80842621E+00
  4.87575312E+00  4.99422725E+00  5.23479779E+00  5.31276733E+00  5.51591169E+00
  5.52893445E+00  5.85225756E+00  5.88341961E+00  6.06975171E+00  6.22768888E+00
  6.82138369E+00  6.88269783E+00  6.88464719E+00  6.90458309E+00  7.72357777E+00
  7.76719475E+00  7.78496887E+00  7.82191475E+00  7.83026818E+00  7.89287449E+00
  7.92379360E+00  8.01914534E+00  8.16768678E+00  8.19453025E+00  8.52761770E+00
  8.62365823E+00  8.65142965E+00  8.69465962E+00  8.77764339E+00  8.84175863E+00
  8.98710914E+00  9.03749616E+00  9.21521002E+00  9.66609662E+00  9.89535821E+00
  9.90365190E+00  9.93210233E+00  9.97989945E+00  1.03156068E+01  1.04417859E+01
  1.06911649E+01  1.10133167E+01  1.10826554E+01  1.10841612E+01  1.12687215E+01
  1.13026881E+01  1.14073252E+01  1.17085305E+01  1.17893756E+01  1.18280855E+01
  1.19813924E+01  1.21914978E+01  1.21976145E+01  1.26098290E+01  1.27263657E+01
  1.28143360E+01  1.28918853E+01  1.31710710E+01  1.39719228E+01  1.40003739E+01
  1.44841287E+01  1.47809579E+01  1.48796386E+01  1.52278265E+01  1.68167231E+01
  1.72688387E+01  4.54743875E+01
Alpha MO coefficients                      R   N=       29584
  5.86318099E-01 -4.47184327E-01  1.92452829E-02 -6.98193392E-03  2.19897015E-03
  1.47455180E-03  0.00000000E+00  0.00000000E+00 -1.65944704E-03  0.00000000E+00
  0.00000000E+00  5.55499934E-04  0.00000000E+00  0.00000000E+00  4.90306438E-04
  0.00000000E+00  0.00000000E+00 -2.12924134E-03  0.00000000E+00  0.00000000E+00
 -3.67185628E-04  2.08133346E-05  0.00000000E+00  0.00000000E+00 -1.14208592E-04
  0.00000000E+00 -5.55224922E-05  0.00000000E+00  0.00000000E+00  4.03841609E-04
  0.00000000E+00  5.15404693E-04  0.00000000E+00  0.00000000E+00  4.53177068E-04
  0.00000000E+00  3.09119493E-04  0.00000000E+00  0.00000000E+00 -3.13972673E-04
  0.00000000E+00  3.72590102E-05  0.00000000E+00  0.00000000E+00  6.12961986E-05
  0.00000000E+00  0.00000000E+00  0.00000000E+00 -1.60788084E-04  0.00000000E+00
  0.00000000E+00 -2.06274097E-04  0.00000000E+00  0.00000000E+00  0.00000000E+00
  1.06117024E-05  0.00000000E+00  0.00000000E+00  1.65318422E-04  0.00000000E+00
  0.00000000E+00  0.00000000E+00 -2.93132162E-06  0.00000000E+00  0.00000000E+00
 -4.39998164E-06  0.00000000E+00  0.00000000E+00  0.00000000E+00  7.15153354E-06
  0.00000000E+00  1.81662973E-05  0.00000000E+00  0.00000000E+00 -1.45530309E-05
  0.00000000E+00  0.00000000E+00  0.00000000E+00 -4.71526993E-05  0.00000000E+00
 -9.31724755E-06  6.72541259E-04 -2.38089841E-04 -7.06941831E-04 -1.32593165E-05
  0.00000000E+00  6.05669915E-06 -2.92483972E-05  0.00000000E+00 -3.92875969E-04
  5.04080467E-04  0.00000000E+00 -2.87197996E-04  9.67838279E-04  0.00000000E+00
 -6.52691328E-05  2.17555355E-04 -7.85128740E-06  0.00000000E+00 -1.98822109E-05
 -8.89299022E-06  0.00000000E+00  2.05321745E-04  0.00000000E+00 -3.93788369E-04
 -1.21162720E-04  0.00000000E+00  1.97700189E-04  0.00000000E+00 -3.88798028E-04
 -1.92036025E-04  0.00000000E+00 -2.39532639E-05  0.00000000E+00 -3.10649860E-05
 -4.38900799E-05  0.00000000E+00  0.00000000E+00  5.26431466E-06  2.21907735E-05
  0.00000000E+00 -7.80348398E-05 -7.20849193E-05  0.00000000E+00  0.00000000E+00
  6.53084794E-05 -9.31724755E-06  6.72541259E-04 -2.38089841E-04 -7.06941831E-04
 -1.32593165E-05  0.00000000E+00 -6.05669915E-06 -2.92483972E-05  0.00000000E+00
  3.92875969E-04  5.04080467E-04  0.00000000E+00  2.87197996E-04  9.67838279E-04
  0.00000000E+00  6.52691328E-05  2.17555355E-04 -7.85128740E-06  0.00000000E+00
  1.98822109E-05 -8.89299022E-06  0.00000000E+00  2.05321745E-04  0.00000000E+00
  3.93788369E-04 -1.21162720E-04  0.00000000E+00  1.97700189E-04  0.00000000E+00
  3.88798028E-04 -1.92036025E-04  0.00000000E+00 -2.39532639E-05  0.00000000E+00
  3.10649860E-05 -4.38900799E-05  0.00000000E+00  0.00000000E+00 -5.26431466E-06
  2.21907735E-05  0.00000000E+00  7.80348398E-05 -7.20849193E-05  0.00000000E+00
  0.00000000E+00 -6.53084794E-05 -1.19336080E-01  2.11656883E-01  2.46987233E-01
  4.83453218E-01  2.32655247E-01  2.94658246E-02  0.00000000E+00  0.00000000E+00
 -2.16942704E-02  0.00000000E+00  0.00000000E+00 -4.16475006E-02  0.00000000E+00
  0.00000000E+00 -5.59474124E-02  0.00000000E+00  0.00000000E+00 -2.70058477E-02
  0.00000000E+00  0.00000000E+00 -3.22293906E-03  3.23304955E-04  0.00000000E+00
  0.00000000E+00 -9.07182036E-04  0.00000000E+00  1.66784020E-03  0.00000000E+00
  0.00000000E+00 -5.57776419E-03  0.00000000E+00  3.95862341E-03  0.00000000E+00
  0.00000000E+00 -9.43036063E-03  0.00000000E+00  1.03625526E-03  0.00000000E+00
  0.00000000E+00 -3.50300143E-03  0.00000000E+00  3.89449967E-04  0.00000000E+00
  0.00000000E+00  1.03193463E-03  0.00000000E+00  0.00000000E+00  0.00000000E+00
  1.36339709E-03  0.00000000E+00  0.00000000E+00  3.82807861E-03  0.00000000E+00
  0.00000000E+00  0.00000000E+00  1.57279455E-03  0.00000000E+00  0.00000000E+00
  4.02868557E-03  0.00000000E+00  0.00000000E+00  0.00000000E+00 -1.92619194E-04
  0.00000000E+00  0.00000000E+00 -3.01052262E-04  0.00000000E+00  0.00000000E+00
  0.00000000E+00  1.47526763E-04  0.00000000E+00 -7.47719577E-04  0.00000000E+00
  0.00000000E+00 -1.14251676E-03  0.00000000E+00  0.00000000E+00  0.00000000E+00
  2.72725546E-04  0.00000000E+00  3.40842146E-02  7.45833441E-02  3.92988500E-02
 -1.13779459E-02 -6.21986798E-04  0.00000000E+00 -5.13282390E-03  3.54379512E-03
  0.00000000E+00 -8.55816479E-03  6.02005437E-03  0.00000000E+00 -7.99773145E-03
  6.21060901E-03  0.00000000E+00  5.04020766E-04 -3.90629160E-04 -5.60756202E-06
  0.00000000E+00 -1.73392830E-03 -1.32978758E-03  0.00000000E+00  5.20804612E-04
  0.00000000E+00 -2.38897335E-03 -1.61724880E-03  0.00000000E+00  3.76090687E-04
  0.00000000E+00 -2.67761700E-03 -1.57606595E-03  0.00000000E+00 -2.37469617E-04
  0.00000000E+00 -3.15792889E-04 -6.72502848E-04  0.00000000E+00  0.00000000E+00
  4.48639486E-04  1.98475649E-05  0.00000000E+00 -2.59882643E-04 -2.24153064E-04
  0.00000000E+00  0.00000000E+00  1.68490143E-04  3.40842146E-02  7.45833441E-02
  3.92988500E-02 -1.13779459E-02 -6.21986798E-04  0.00000000E+00  5.13282390E-03
  3.54379512E-03  0.00000000E+00  8.55816479E-03  6.02005437E-03  0.00000000E+00
  7.99773145E-03  6.21060901E-03  0.00000000E+00 -5.04020766E-04 -3.90629160E-04
 -5.60756202E-06  0.00000000E+00  1.73392830E-03 -1.32978758E-03  0.00000000E+00
  5.20804612E-04  0.00000000E+00  2.38897335E-03 -1.61724880E-03  0.00000000E+00
  3.76090687E-04  0.00000000E+00  2.67761700E-03 -1.57606595E-03  0.00000000E+00
 -2.37469617E-04  0.00000000E+00  3.15792889E-04 -6.72502848E-04  0.00000000E+00
  0.00000000E+00 -4.48639486E-04  1.98475649E-05  0.00000000E+00  2.59882643E-04
 -2.24153064E-04  0.00000000E+00  0.00000000E+00 -1.68490143E-04  0.00000000E+00
  0.00000000E+00  0.00000000E+00  0.00000000E+00  0.00000000E+00  0.00000000E+00
  0.00000000E+00  1.41373821E-01  0.00000000E+00  0.00000000E+00  2.58281794E-01
  0.00000000E+00  0.00000000E+00  3.08278722E-01  0.00000000E+00  0.00000000E+00
  1.38329506E-01  0.00000000E+00  0.00000000E+00  9.15084589E-03  0.00000000E+00
  0.00000000E+00  0.00000000E+00 -4.98640546E-03  0.00000000E+00  0.00000000E+00
  0.00000000E+00  0.00000000E+00 -1.74144162E-02  0.00000000E+00  0.00000000E+00
  0.00000000E+00  0.00000000E+00 -2.97968908E-02  0.00000000E+00  0.00000000E+00
  0.00000000E+00  0.00000000E+00 -1.00039267E-02  0.00000000E+00  0.00000000E+00
  0.00000000E+00  0.00000000E+00  6.55180798E-04  0.00000000E+00  0.00000000E+00
  0.00000000E+00 -1.42084239E-03  0.00000000E+00  0.00000000E+00  8.01720191E-04
  0.00000000E+00  0.00000000E+00  0.00000000E+00 -4.27008629E-03  0.00000000E+00
  0.00000000E+00  3.90871344E-03  0.00000000E+00  0.00000000E+00  0.00000000E+00
 -3.08463636E-03  0.00000000E+00  0.00000000E+00  3.08449174E-04  0.00000000E+00
  0.00000000E+00  0.00000000E+00  5.91300686E-04  0.00000000E+00  0.00000000E+00
  0.00000000E+00  0.00000000E+00  5.34554869E-04  0.00000000E+00  0.00000000E+00
  0.00000000E+00  1.43979400E-03  0.00000000E+00  0.00000000E+00  5.35636360E-02
  1.31221462E-01  1.73820511E-01  1.08910637E-02 -3.72966797E-03  0.00000000E+00
 -3.93930030E-03  5.32296491E-03  0.00000000E+00 -7.93065109E-03  1.12556219E-02
  0.00000000E+00 -1.88976297E-02  2.44360166E-02  0.00000000E+00  4.50260316E-03
  8.00014253E-04  8.58196388E-04  0.00000000E+00 -2.07291634E-03 -5.96381656E-04
  0.00000000E+00  1.20886455E-03  0.00000000E+00 -6.00717702E-03 -3.66881217E-03
  0.00000000E+00  1.28638565E-03  0.00000000E+00 -5.93611356E-03 -2.07270358E-03
  0.00000000E+00 -2.78237121E-04  0.00000000E+00 -8.25959026E-04 -8.46153780E-04
  0.00000000E+00  0.00000000E+00  2.32881677E-04 -8.83438601E-04  0.00000000E+00
 -2.96764058E-04 -1.16474226E-03  0.00000000E+00  0.00000000E+00  9.16497043E-04
 -5.35636360E-02 -1.31221462E-01 -1.73820511E-01 -1.08910637E-02  3.72966797E-03
  0.00000000E+00 -3.93930030E-03 -5.32296491E-03  0.00000000E+00 -7.93065109E-03
 -1.12556219E-02  0.00000000E+00 -1.88976297E-02 -2.44360166E-02  0.00000000E+00
  4.50260316E-03 -8.00014253E-04 -8.58196388E-04  0.00000000E+00 -2.07291634E-03
  5.96381656E-04  0.00000000E+00 -1.20886455E-03  0.00000000E+00 -6.00717702E-03
  3.66881217E-03  0.00000000E+00 -1.28638565E-03  0.00000000E+00 -5.93611356E-03
  2.07270358E-03  0.00000000E+00  2.78237121E-04  0.00000000E+00 -8.25959026E-04
  8.46153780E-04  0.00000000E+00  0.00000000E+00  2.32881677E-04  8.83438601E-04
  0.00000000E+00 -2.96764058E-04  1.16474226E-03  0.00000000E+00  0.00000000E+00
  9.16497043E-04 -3.91369412E-02  7.14520139E-02  8.94649761E-02  2.15788956E-01
  2.82592305E-01  5.22664231E-02  0.00000000E+00  0.00000000E+00  1.55867130E-01
  0.00000000E+00  0.00000000E+00  2.83251874E-01  0.00000000E+00  0.00000000E+00
  3.50096194E-01  0.00000000E+00  0.00000000E+00  1.73289070E-01  0.00000000E+00
  0.00000000E+00  1.01996002E-02 -1.99992861E-03  0.00000000E+00  0.00000000E+00
  1.40540823E-03  0.00000000E+00 -8.99349065E-03  0.00000000E+00  0.00000000E+00
  4.05676329E-03  0.00000000E+00 -1.80531931E-02  0.00000000E+00  0.00000000E+00
  3.76649915E-03  0.00000000E+00 -4.38527772E-03  0.00000000E+00  0.00000000E+00
 -3.03725074E-05  0.00000000E+00 -7.03158908E-05  0.00000000E+00  0.00000000E+00
 -1.33498908E-03  0.00000000E+00  0.00000000E+00  0.00000000E+00  6.10027106E-04
  0.00000000E+00  0.00000000E+00 -3.86133780E-03  0.00000000E+00  0.00000000E+00
  0.00000000E+00  7.40594680E-04  0.00000000E+00  0.00000000E+00 -3.09725424E-03
  0.00000000E+00  0.00000000E+00  0.00000000E+00  2.42480683E-04  0.00000000E+00
  0.00000000E+00  4.16969627E-04  0.00000000E+00  0.00000000E+00  0.00000000E+00
 -5.74429890E-05  0.00000000E+00  3.70037223E-04  0.00000000E+00  0.00000000E+00
  1.33145296E-03  0.00000000E+00  0.00000000E+00  0.00000000E+00 -2.70891554E-04
  0.00000000E+00 -3.24596180E-02 -8.06911175E-02 -1.54292913E-01 -4.23537581E-02
 -6.35703785E-04  0.00000000E+00  4.33497716E-03  4.81905516E-04  0.00000000E+00
  9.43548939E-03  2.28852042E-03  0.00000000E+00  3.01840373E-02 -5.31798896E-03
  0.00000000E+00  3.78168093E-03  2.92081246E-03  1.15514640E-03  0.00000000E+00
  4.03899666E-04  1.38339340E-03  0.00000000E+00  9.95982130E-04  0.00000000E+00
  3.24198749E-03  3.40113282E-03  0.00000000E+00 -1.72316763E-05  0.00000000E+00
  2.55703673E-03  1.60736423E-03  0.00000000E+00  4.45053722E-04  0.00000000E+00
 -3.55008817E-04  5.50943276E-04  0.00000000E+00  0.00000000E+00 -6.73861605E-04
  2.25006278E-04  0.00000000E+00  1.00133284E-03  6.08027523E-04  0.00000000E+00
  0.00000000E+00  5.25200491E-04 -3.24596180E-02 -8.06911175E-02 -1.54292913E-01
 -4.23537581E-02 -6.35703785E-04  0.00000000E+00 -4.33497716E-03  4.81905516E-04
  0.00000000E+00 -9.43548939E-03  2.28852042E-03  0.00000000E+00 -3.01840373E-02
 -5.31798896E-03  0.00000000E+00 -3.78168093E-03  2.92081246E-03  1.15514640E-03
  0.00000000E+00 -4.03899666E-04  1.38339340E-03  0.00000000E+00  9.95982130E-04
  0.00000000E+00 -3.24198749E-03  3.40113282E-03  0.00000000E+00 -1.72316763E-05
  0.00000000E+00 -2.55703673E-03  1.60736423E-03  0.00000000E+00  4.45053722E-04
  0.00000000E+00  3.55008817E-04  5.50943276E-04  0.00000000E+00  0.00000000E+00
  6.73861605E-04  2.25006278E-04  0.00000000E+00 -1.00133284E-03  6.08027523E-04
  0.00000000E+00  0.00000000E+00 -5.25200491E-04  0.00000000E+00  0.00000000E+00
  0.00000000E+00  0.00000000E+00  0.00000000E+00  0.00000000E+00  1.77725534E-01
  0.00000000E+00  0.00000000E+00  3.23891689E-01  0.00000000E+00  0.00000000E+00
  4.13849085E-01  0.00000000E+00  0.00000000E+00  2.48950176E-01  0.00000000E+00
  0.00000000E+00  2.04163818E-02  0.00000000E+00  0.00000000E+00  0.00000000E+00
 -1.88425532E-03  0.00000000E+00  0.00000000E+00  0.00000000E+00  0.00000000E+00
 -8.63865867E-03  0.00000000E+00  0.00000000E+00  0.00000000E+00  0.00000000E+00
 -1.22341689E-02  0.00000000E+00  0.00000000E+00  0.00000000E+00  0.00000000E+00
 -4.41654301E-03  0.00000000E+00  0.00000000E+00  0.00000000E+00  0.00000000E+00
  4.86367352E-04  0.00000000E+00  0.00000000E+00  0.00000000E+00 -1.26168454E-03
  0.00000000E+00  0.00000000E+00  1.34965953E-03  0.00000000E+00  0.00000000E+00
  0.00000000E+00 -3.13313487E-03  0.00000000E+00  0.00000000E+00  1.25351683E-03
  0.00000000E+00  0.00000000E+00  0.00000000E+00  1.88061065E-04  0.00000000E+00
  0.00000000E+00  1.13504483E-05  0.00000000E+00  0.00000000E+00  0.00000000E+00
  3.83648693E-04  0.00000000E+00  0.00000000E+00  0.00000000E+00  0.00000000E+00