title                                                                   
SP        RHF                                                         Aug-CC-pVTZ         
Number of atoms                            I                4
Info1-9                                    I   N=           9
          15          13           0           0           0         111
           1           1           2
Full Title                                 C   N=           1
title       
Route                                      C   N=           4
#p hf aug-cc-pvtz 6d 10f output=wfx iop(3/60=-1)
Charge                                     I                0
Multiplicity                               I                1
Number of electrons                        I               18
Number of alpha electrons                  I                9
Number of beta electrons                   I                9
Number of basis functions                  I              160
Number of independent functions            I              160
Number of point charges in /Mol/           I                0
Number of translation vectors              I                0
Atomic numbers                             I   N=           4
           8           8           1           1
Nuclear charges                            R   N=           4
  8.00000000E+00  8.00000000E+00  1.00000000E+00  1.00000000E+00
Current cartesian coordinates              R   N=          12
 -9.92969036E-18  1.36616616E+00 -1.11291641E-01 -1.57377412E-16 -1.36616616E+00
 -1.11291641E-01  1.49284962E+00  1.69639580E+00  8.90335015E-01 -1.49284962E+00
 -1.69639580E+00  8.90335015E-01
Number of symbols in /Mol/                 I                0
Force Field                                I                0
Atom Types                                 C   N=           4
                                                
Int Atom Types                             I   N=           4
           0           0           0           0
MM charges                                 R   N=           4
  0.00000000E+00  0.00000000E+00  0.00000000E+00  0.00000000E+00
Integer atomic weights                     I   N=           4
          16          16           1           1
Real atomic weights                        R   N=           4
  1.59949146E+01  1.59949146E+01  1.00782504E+00  1.00782504E+00
Atom fragment info                         I   N=           4
           0           0           0           0
Atom residue num                           I   N=           4
           0           0           0           0
Nuclear spins                              I   N=           4
           0           0           1           1
Nuclear ZEff                               R   N=           4
 -5.60000000E+00 -5.60000000E+00 -1.00000000E+00 -1.00000000E+00
Nuclear ZNuc                               R   N=           4
  8.00000000E+00  8.00000000E+00  1.00000000E+00  1.00000000E+00
Nuclear QMom                               R   N=           4
  0.00000000E+00  0.00000000E+00  0.00000000E+00  0.00000000E+00
Nuclear GFac                               R   N=           4
  0.00000000E+00  0.00000000E+00  2.79284600E+00  2.79284600E+00
MicOpt                                     I   N=           4
          -1          -1          -1          -1
Number of residues                         I                0
Number of secondary structures             I                0
SymInf integers                            I   N=          26
           2           2           1           1           1          -1
          -1           1           0           0           0           0
           0           0           0           0           0           0
           0           0           0           0           0           0
           0           0
RotTr to input orientation                 R   N=          12
  1.00000000E+00  7.26828890E-18  0.00000000E+00 -7.26828890E-18  1.00000000E+00
  0.00000000E+00  0.00000000E+00  0.00000000E+00  1.00000000E+00  0.00000000E+00
  0.00000000E+00  2.09969569E-07
Number of contracted shells                I               46
Number of primitive shells                 I               82
Pure/Cartesian d shells                    I                1
Pure/Cartesian f shells                    I                1
Highest angular momentum                   I                3
Largest degree of contraction              I                8
Shell types                                I   N=          46
           0           0           0           0           1           1
           1           2           2           3           0           1
           2           3           0           0           0           0
           1           1           1           2           2           3
           0           1           2           3           0           0
           0           1           1           2           0           1
           2           0           0           0           1           1
           2           0           1           2
Number of primitives per shell             I   N=          46
           8           8           1           1           3           1
           1           1           1           1           1           1
           1           1           8           8           1           1
           3           1           1           1           1           1
           1           1           1           1           3           1
           1           1           1           1           1           1
           1           3           1           1           1           1
           1           1           1           1
Shell to atom map                          I   N=          46
           1           1           1           1           1           1
           1           1           1           1           1           1
           1           1           2           2           2           2
           2           2           2           2           2           2
           2           2           2           2           3           3
           3           3           3           3           3           3
           3           4           4           4           4           4
           4           4           4           4
Primitive exponents                        R   N=          82
  1.53300000E+04  2.29900000E+03  5.22400000E+02  1.47300000E+02  4.75500000E+01
  1.67600000E+01  6.20700000E+00  6.88200000E-01  1.53300000E+04  2.29900000E+03
  5.22400000E+02  1.47300000E+02  4.75500000E+01  1.67600000E+01  6.20700000E+00
  6.88200000E-01  1.75200000E+00  2.38400000E-01  3.44600000E+01  7.74900000E+00
  2.28000000E+00  7.15600000E-01  2.14000000E-01  2.31400000E+00  6.45000000E-01
  1.42800000E+00  7.37600000E-02  5.97400000E-02  2.14000000E-01  5.00000000E-01
  1.53300000E+04  2.29900000E+03  5.22400000E+02  1.47300000E+02  4.75500000E+01
  1.67600000E+01  6.20700000E+00  6.88200000E-01  1.53300000E+04  2.29900000E+03
  5.22400000E+02  1.47300000E+02  4.75500000E+01  1.67600000E+01  6.20700000E+00
  6.88200000E-01  1.75200000E+00  2.38400000E-01  3.44600000E+01  7.74900000E+00
  2.28000000E+00  7.15600000E-01  2.14000000E-01  2.31400000E+00  6.45000000E-01
  1.42800000E+00  7.37600000E-02  5.97400000E-02  2.14000000E-01  5.00000000E-01
  3.38700000E+01  5.09500000E+00  1.15900000E+00  3.25800000E-01  1.02700000E-01
  1.40700000E+00  3.88000000E-01  1.05700000E+00  2.52600000E-02  1.02000000E-01
  2.47000000E-01  3.38700000E+01  5.09500000E+00  1.15900000E+00  3.25800000E-01
  1.02700000E-01  1.40700000E+00  3.88000000E-01  1.05700000E+00  2.52600000E-02
  1.02000000E-01  2.47000000E-01
Contraction coefficients                   R   N=          82
  5.20198307E-04  4.02334478E-03  2.07290833E-02  8.10823271E-02  2.36226352E-01
  4.43518209E-01  3.58670589E-01 -8.34979724E-03 -1.97236012E-04 -1.53501070E-03
 -7.95118391E-03 -3.21134529E-02 -1.00269643E-01 -2.34047112E-01 -3.01410928E-01
  1.03491965E+00  1.00000000E+00  1.00000000E+00  4.11634896E-02  2.57762836E-01
  8.02419274E-01  1.00000000E+00  1.00000000E+00  1.00000000E+00  1.00000000E+00
  1.00000000E+00  1.00000000E+00  1.00000000E+00  1.00000000E+00  1.00000000E+00
  5.20198307E-04  4.02334478E-03  2.07290833E-02  8.10823271E-02  2.36226352E-01
  4.43518209E-01  3.58670589E-01 -8.34979724E-03 -1.97236012E-04 -1.53501070E-03
 -7.95118391E-03 -3.21134529E-02 -1.00269643E-01 -2.34047112E-01 -3.01410928E-01
  1.03491965E+00  1.00000000E+00  1.00000000E+00  4.11634896E-02  2.57762836E-01
  8.02419274E-01  1.00000000E+00  1.00000000E+00  1.00000000E+00  1.00000000E+00
  1.00000000E+00  1.00000000E+00  1.00000000E+00  1.00000000E+00  1.00000000E+00
  2.54948632E-02  1.90362766E-01  8.52162022E-01  1.00000000E+00  1.00000000E+00
  1.00000000E+00  1.00000000E+00  1.00000000E+00  1.00000000E+00  1.00000000E+00
  1.00000000E+00  2.54948632E-02  1.90362766E-01  8.52162022E-01  1.00000000E+00
  1.00000000E+00  1.00000000E+00  1.00000000E+00  1.00000000E+00  1.00000000E+00
  1.00000000E+00  1.00000000E+00
Coordinates of each shell                  R   N=         138
  9.99219136E-35  1.36616616E+00 -1.11291851E-01  9.99219136E-35  1.36616616E+00
 -1.11291851E-01  9.99219136E-35  1.36616616E+00 -1.11291851E-01  9.99219136E-35
  1.36616616E+00 -1.11291851E-01  9.99219136E-35  1.36616616E+00 -1.11291851E-01
  9.99219136E-35  1.36616616E+00 -1.11291851E-01  9.99219136E-35  1.36616616E+00
 -1.11291851E-01  9.99219136E-35  1.36616616E+00 -1.11291851E-01  9.99219136E-35
  1.36616616E+00 -1.11291851E-01  9.99219136E-35  1.36616616E+00 -1.11291851E-01
  9.99219136E-35  1.36616616E+00 -1.11291851E-01  9.99219136E-35  1.36616616E+00
 -1.11291851E-01  9.99219136E-35  1.36616616E+00 -1.11291851E-01  9.99219136E-35
  1.36616616E+00 -1.11291851E-01 -1.67307102E-16 -1.36616616E+00 -1.11291851E-01
 -1.67307102E-16 -1.36616616E+00 -1.11291851E-01 -1.67307102E-16 -1.36616616E+00
 -1.11291851E-01 -1.67307102E-16 -1.36616616E+00 -1.11291851E-01 -1.67307102E-16
 -1.36616616E+00 -1.11291851E-01 -1.67307102E-16 -1.36616616E+00 -1.11291851E-01
 -1.67307102E-16 -1.36616616E+00 -1.11291851E-01 -1.67307102E-16 -1.36616616E+00
 -1.11291851E-01 -1.67307102E-16 -1.36616616E+00 -1.11291851E-01 -1.67307102E-16
 -1.36616616E+00 -1.11291851E-01 -1.67307102E-16 -1.36616616E+00 -1.11291851E-01
 -1.67307102E-16 -1.36616616E+00 -1.11291851E-01 -1.67307102E-16 -1.36616616E+00
 -1.11291851E-01 -1.67307102E-16 -1.36616616E+00 -1.11291851E-01  1.49284962E+00
  1.69639580E+00  8.90334805E-01  1.49284962E+00  1.69639580E+00  8.90334805E-01
  1.49284962E+00  1.69639580E+00  8.90334805E-01  1.49284962E+00  1.69639580E+00
  8.90334805E-01  1.49284962E+00  1.69639580E+00  8.90334805E-01  1.49284962E+00
  1.69639580E+00  8.90334805E-01  1.49284962E+00  1.69639580E+00  8.90334805E-01
  1.49284962E+00  1.69639580E+00  8.90334805E-01  1.49284962E+00  1.69639580E+00
  8.90334805E-01 -1.49284962E+00 -1.69639580E+00  8.90334805E-01 -1.49284962E+00
 -1.69639580E+00  8.90334805E-01 -1.49284962E+00 -1.69639580E+00  8.90334805E-01
 -1.49284962E+00 -1.69639580E+00  8.90334805E-01 -1.49284962E+00 -1.69639580E+00
  8.90334805E-01 -1.49284962E+00 -1.69639580E+00  8.90334805E-01 -1.49284962E+00
 -1.69639580E+00  8.90334805E-01 -1.49284962E+00 -1.69639580E+00  8.90334805E-01
 -1.49284962E+00 -1.69639580E+00  8.90334805E-01
Num ILSW                                   I              100
ILSW                                       I   N=         100
           0           1           0           0           2           0
           0           0           0           0           0          -1
           5           0           0           1           0           0
           0           0           0           0           0           0
           1           0           0           0           0           0
           0           0      100000           0          -1           0
           0           0           0           0           0           0
           0           0           0           1           0           0
           0 -2000000000           1           0           0           0
           0           0           4          52           0           0
           0           0           0           0           0           0
           0           0           0           4           0           1
           0           0           0           0           0           0
           0           0           0           0           0           0
           0           0           0           0           0           0
           0           0           0           0           0           0
           0           0           0           0
Num RLSW                                   I               52
RLSW                                       R   N=          52
  1.00000000E+00  1.00000000E+00  1.00000000E+00  1.00000000E+00  1.00000000E+00
  0.00000000E+00  0.00000000E+00  1.00000000E+00  0.00000000E+00  0.00000000E+00
  0.00000000E+00  0.00000000E+00  1.00000000E+00  0.00000000E+00  0.00000000E+00
  0.00000000E+00  0.00000000E+00  1.00000000E+00  0.00000000E+00  0.00000000E+00
  0.00000000E+00  0.00000000E+00  1.00000000E+00  0.00000000E+00  0.00000000E+00
  0.00000000E+00  0.00000000E+00  1.00000000E+00  0.00000000E+00  0.00000000E+00
  0.00000000E+00  0.00000000E+00  1.00000000E+00  0.00000000E+00  0.00000000E+00
  0.00000000E+00  0.00000000E+00  0.00000000E+00  1.00000000E+00  1.00000000E+00
  0.00000000E+00  1.00000000E+00  0.00000000E+00  0.00000000E+00  0.00000000E+00
  0.00000000E+00  0.00000000E+00  0.00000000E+00  0.00000000E+00  0.00000000E+00
  0.00000000E+00  0.00000000E+00
MxBond                                     I                2
NBond                                      I   N=           4
           2           2           1           1
IBond                                      I   N=           8
           2           3           1           4           1           0
           2           0
RBond                                      R   N=           8
  1.00000000E+00  1.00000000E+00  1.00000000E+00  1.00000000E+00  1.00000000E+00
  0.00000000E+00  1.00000000E+00  0.00000000E+00
Virial Ratio                               R      2.001520291658212E+00
SCF Energy                                 R     -1.508406526337697E+02
Total Energy                               R     -1.508406526337697E+02
RMS Density                                R      3.434837668059803E-09
Job Status                                 I                1
Nuclear derivative order                   I                0
External E-field                           R   N=          35
  0.00000000E+00  0.00000000E+00  0.00000000E+00  0.00000000E+00  0.00000000E+00
  0.00000000E+00  0.00000000E+00  0.00000000E+00  0.00000000E+00  0.00000000E+00
  0.00000000E+00  0.00000000E+00  0.00000000E+00  0.00000000E+00  0.00000000E+00
  0.00000000E+00  0.00000000E+00  0.00000000E+00  0.00000000E+00  0.00000000E+00
  0.00000000E+00  0.00000000E+00  0.00000000E+00  0.00000000E+00  0.00000000E+00
  0.00000000E+00  0.00000000E+00  0.00000000E+00  0.00000000E+00  0.00000000E+00
  0.00000000E+00  0.00000000E+00  0.00000000E+00  0.00000000E+00  0.00000000E+00
IOpCl                                      I                0
IROHF                                      I                0
Alpha Orbital Energies                     R   N=         160
 -2.06311552E+01 -2.06308640E+01 -1.47815879E+00 -1.21395064E+00 -7.15958954E-01
 -7.11328000E-01 -6.11367905E-01 -5.18258031E-01 -4.87351630E-01  3.20602173E-02
  4.16218984E-02  1.10282555E-01  1.24241602E-01  1.55781065E-01  1.68466954E-01
  1.78881753E-01  1.90196827E-01  1.94473659E-01  2.13523497E-01  2.46346630E-01
  2.73936704E-01  3.16675709E-01  3.21933903E-01  3.37814200E-01  3.53464574E-01
  3.55032511E-01  4.11450884E-01  4.38159093E-01  5.38332211E-01  5.42615174E-01
  6.74311613E-01  6.82853532E-01  7.06672546E-01  7.35887700E-01  7.39152035E-01
  7.49497625E-01  7.55126370E-01  7.87738173E-01  8.03020848E-01  8.25722502E-01
  8.27554155E-01  8.84883541E-01  9.03851934E-01  9.09314062E-01  9.20681477E-01
  9.86403211E-01  9.96920003E-01  1.00120753E+00  1.01677527E+00  1.03247812E+00
  1.04917676E+00  1.16162633E+00  1.17339897E+00  1.21337323E+00  1.22831825E+00
  1.24565071E+00  1.25239885E+00  1.32435624E+00  1.36043439E+00  1.38472587E+00
  1.51657614E+00  1.55687606E+00  1.57179762E+00  1.72364480E+00  1.75717558E+00
  1.81217843E+00  1.96461057E+00  2.00247212E+00  2.02759084E+00  2.05726928E+00
  2.07258283E+00  2.15431400E+00  2.16743115E+00  2.25521925E+00  2.25521982E+00
  2.25791058E+00  2.28373417E+00  2.36251955E+00  2.38924441E+00  2.41772002E+00
  2.48664028E+00  2.51456279E+00  2.58343659E+00  2.63193550E+00  2.69924451E+00
  2.73843893E+00  2.74480026E+00  2.80635751E+00  2.84792941E+00  2.88245166E+00
  2.94728188E+00  2.99118038E+00  3.01174993E+00  3.07526347E+00  3.21605168E+00
  3.39703698E+00  3.41757862E+00  3.95699415E+00  4.01577591E+00  4.04464000E+00
  4.10863727E+00  4.14810591E+00  4.22107836E+00  4.31541149E+00  4.36040204E+00
  4.39476625E+00  4.47085559E+00  4.55089258E+00  4.66425012E+00  4.83685979E+00
  5.02415443E+00  5.07314083E+00  5.07851956E+00  5.08588526E+00  5.13874804E+00
  5.21270415E+00  5.67434096E+00  5.70488745E+00  5.71938948E+00  5.76366159E+00
  5.83681604E+00  6.00981488E+00  6.26362910E+00  6.40948159E+00  6.47211130E+00
  6.62146621E+00  6.62517333E+00  6.65309175E+00  6.75611067E+00  6.84238939E+00
  6.87713956E+00  7.01714171E+00  7.09838697E+00  7.14889518E+00  7.19712685E+00
  7.21275423E+00  7.25354392E+00  7.27141663E+00  7.31777998E+00  7.32495982E+00
  7.36885015E+00  7.61852378E+00  7.69802387E+00  7.75301414E+00  7.99677308E+00
  8.23357395E+00  8.64759607E+00  8.92559888E+00  8.96847440E+00  9.21023341E+00
  1.37466364E+01  1.39223640E+01  1.43762979E+01  1.47161375E+01  1.51338519E+01
  1.56801884E+01  1.60498016E+01  1.72923335E+01  1.75029069E+01  1.80881970E+01
Alpha MO coefficients                      R   N=       25600
  6.87269836E-01 -6.72694748E-03  3.43677185E-02 -1.00454727E-02  1.41160472E-03
 -1.71053105E-03  1.05854343E-03 -2.83261525E-03  4.09615335E-03 -2.17425107E-03
 -2.36462048E-03  1.84231933E-03 -1.47783428E-03  1.94531704E-03  1.77367269E-03
  1.96532568E-03 -1.50389384E-05 -1.18863035E-05 -2.84473891E-06  5.44248865E-03
  5.57390707E-03  5.50110012E-03 -2.13419838E-05 -1.64312625E-04  1.00577946E-05
  1.31393753E-03 -1.86835322E-03  9.72964095E-04  5.87523699E-04 -6.90893571E-04
  4.23640399E-04  5.82513421E-04 -7.01544095E-04  4.41377421E-04 -5.61172173E-06
 -2.59428926E-03 -7.94811555E-06  1.28708169E-04 -2.77760452E-04  1.66928002E-03
  1.88338968E-03  1.71409017E-03  3.21857860E-04 -2.44016210E-04  1.28283477E-04
  1.50932618E-03 -1.66481569E-03  1.13815260E-03  8.03790910E-04 -6.86070873E-04
  3.59900378E-04  6.24950093E-04 -6.82463138E-04  5.75806664E-04  1.16285655E-04
  6.87269836E-01 -6.72694748E-03  3.43677185E-02 -1.00454727E-02 -1.41160472E-03
  1.71053105E-03  1.05854343E-03  2.83261525E-03 -4.09615335E-03 -2.17425107E-03
  2.36462048E-03 -1.84231933E-03 -1.47783428E-03  1.94531704E-03  1.77367269E-03
  1.96532568E-03 -1.50389384E-05  1.18863035E-05  2.84473891E-06  5.44248865E-03
  5.57390707E-03  5.50110012E-03 -2.13419838E-05  1.64312625E-04 -1.00577946E-05
 -1.31393753E-03  1.86835322E-03  9.72964095E-04 -5.87523699E-04  6.90893571E-04
  4.23640399E-04 -5.82513421E-04  7.01544095E-04  4.41377421E-04 -5.61172173E-06
 -2.59428926E-03  7.94811555E-06 -1.28708169E-04 -2.77760452E-04  1.66928002E-03
  1.88338968E-03  1.71409017E-03  3.21857860E-04  2.44016210E-04 -1.28283477E-04
 -1.50932618E-03  1.66481569E-03  1.13815260E-03 -8.03790910E-04  6.86070873E-04
  3.59900378E-04 -6.24950093E-04  6.82463138E-04  5.75806664E-04  1.16285655E-04
  3.52302026E-04 -4.47208934E-04  1.25875662E-03 -2.25915368E-04 -1.21862519E-04
 -1.45835733E-04  6.28015768E-04 -1.23343252E-04  4.79261094E-04  4.16498683E-06
  7.37024447E-05  2.57384193E-05  8.05861307E-05 -5.23272516E-05  4.80163920E-05
  2.38909280E-04  6.60529570E-05 -3.78826740E-04  2.79754630E-04 -1.84088552E-04
  7.06346459E-05 -1.63005664E-05 -1.33079015E-05 -3.27675581E-04 -7.49881860E-05
  3.52302026E-04 -4.47208934E-04  1.25875662E-03  2.25915368E-04  1.21862519E-04
 -1.45835733E-04 -6.28015768E-04  1.23343252E-04  4.79261094E-04  4.16498683E-06
  7.37024447E-05  2.57384193E-05  8.05861307E-05  5.23272516E-05 -4.80163920E-05
  2.38909280E-04 -6.60529570E-05  3.78826740E-04  2.79754630E-04 -1.84088552E-04
  7.06346459E-05 -1.63005664E-05 -1.33079015E-05  3.27675581E-04  7.49881860E-05
  6.87490069E-01 -6.38978993E-03  3.47603187E-02 -2.26372931E-02  1.38701729E-03
 -1.80772454E-03  1.05945685E-03 -3.10145994E-03  4.65693014E-03 -2.31733460E-03
 -2.93907014E-03  8.91751119E-03 -2.66440167E-03  1.97922588E-03  1.96527148E-03
  1.98665367E-03  2.12758559E-06 -2.29568874E-05 -1.77732988E-06  6.06464599E-03
  4.79784744E-03  6.28054565E-03 -1.12815278E-04 -2.50283242E-04 -8.43308949E-05
  1.24424932E-03 -1.66353372E-03  9.63948470E-04  5.58588762E-04 -9.04171346E-04
  4.26426881E-04  5.57612624E-04 -8.91390559E-04  4.32176514E-04 -4.91209567E-06
 -8.94005521E-03 -3.48434283E-05  1.76129363E-03  2.82184522E-05  1.65708631E-03
 -8.77745953E-04  2.15770964E-03 -9.88199490E-05 -6.28521898E-04  2.10884908E-04
  1.23592646E-03 -9.41282694E-04  1.11871600E-03  6.44237052E-04 -9.25126108E-04
  2.78171923E-04  5.01445992E-04 -9.47843981E-04  4.68871158E-04 -3.46525079E-05
 -6.87490069E-01  6.38978993E-03 -3.47603187E-02  2.26372931E-02  1.38701729E-03
 -1.80772454E-03 -1.05945685E-03 -3.10145994E-03  4.65693014E-03  2.31733460E-03
 -2.93907014E-03  8.91751119E-03  2.66440167E-03 -1.97922588E-03 -1.96527148E-03
 -1.98665367E-03 -2.12758559E-06 -2.29568874E-05 -1.77732988E-06 -6.06464599E-03
 -4.79784744E-03 -6.28054565E-03  1.12815278E-04 -2.50283242E-04 -8.43308949E-05
  1.24424932E-03 -1.66353372E-03 -9.63948470E-04  5.58588762E-04 -9.04171346E-04
 -4.26426881E-04  5.57612624E-04 -8.91390559E-04 -4.32176514E-04  4.91209567E-06
  8.94005521E-03 -3.48434283E-05  1.76129363E-03 -2.82184522E-05 -1.65708631E-03
  8.77745953E-04 -2.15770964E-03  9.88199490E-05 -6.28521898E-04  2.10884908E-04
  1.23592646E-03 -9.41282694E-04 -1.11871600E-03  6.44237052E-04 -9.25126108E-04
 -2.78171923E-04  5.01445992E-04 -9.47843981E-04 -4.68871158E-04  3.46525079E-05
  2.85304331E-04  2.78854643E-03  5.25646013E-04 -2.25139576E-04 -2.19032257E-05
 -1.53241537E-04 -2.94849901E-04 -2.12558553E-04 -1.96516624E-04  7.79577465E-05
  7.69563562E-05  2.71008263E-05  4.24819057E-05  6.40831473E-05  2.19339705E-05
 -1.58462787E-04  5.53571192E-05  1.71031766E-04 -8.12065233E-05  1.47569497E-04
  2.07460635E-04  3.38450427E-04 -1.88109741E-04 -1.96027207E-04 -6.93603342E-05
 -2.85304331E-04 -2.78854643E-03 -5.25646013E-04 -2.25139576E-04 -2.19032257E-05
  1.53241537E-04 -2.94849901E-04 -2.12558553E-04  1.96516624E-04 -7.79577465E-05
 -7.69563562E-05 -2.71008263E-05 -4.24819057E-05  6.40831473E-05  2.19339705E-05
  1.58462787E-04  5.53571192E-05  1.71031766E-04  8.12065233E-05 -1.47569497E-04
 -2.07460635E-04 -3.38450427E-04  1.88109741E-04 -1.96027207E-04 -6.93603342E-05
 -7.51221486E-03  3.56178903E-01  9.18277521E-02  1.86813276E-01  1.61317287E-02
 -3.83531786E-02  1.39689627E-02  1.60791728E-02 -5.10497131E-02  1.50228818E-02
  7.23034142E-03 -9.32411003E-03  5.66652339E-03 -1.32386051E-04  3.14022308E-03
 -1.48151820E-03  3.10093710E-04  1.91280297E-03 -9.66851801E-05 -7.76852301E-03
  9.18147050E-03 -9.29772781E-03  1.86094563E-04  1.62696166E-03 -1.07043859E-03
  1.21689973E-03 -6.29974144E-03  3.39958605E-04 -4.52209768E-06  5.78629155E-04
  1.21706339E-03  7.89930183E-04  5.83747324E-04  2.78232334E-04  1.25728904E-04
  9.52157818E-03 -1.06515937E-03 -2.91442329E-04  4.46725507E-04 -5.73265373E-03
 -5.81389328E-03 -4.32858512E-03 -1.72011006E-03 -2.69479283E-03 -1.23351906E-03
 -4.60989170E-03 -5.51859523E-03 -2.56156386E-03 -1.12395797E-03 -6.10213198E-04
 -1.65372348E-03 -2.29186654E-03 -4.04648997E-04 -2.05041645E-04 -1.42193305E-04
 -7.51221486E-03  3.56178903E-01  9.18277521E-02  1.86813276E-01 -1.61317287E-02
  3.83531786E-02  1.39689627E-02 -1.60791728E-02  5.10497131E-02  1.50228818E-02
 -7.23034142E-03  9.32411003E-03  5.66652339E-03 -1.32386051E-04  3.14022308E-03
 -1.48151820E-03  3.10093710E-04 -1.91280297E-03  9.66851801E-05 -7.76852301E-03
  9.18147050E-03 -9.29772781E-03  1.86094563E-04 -1.62696166E-03  1.07043859E-03
 -1.21689973E-03  6.29974144E-03  3.39958605E-04  4.52209768E-06 -5.78629155E-04
  1.21706339E-03 -7.89930183E-04 -5.83747324E-04  2.78232334E-04  1.25728904E-04
  9.52157818E-03  1.06515937E-03  2.91442329E-04  4.46725507E-04 -5.73265373E-03
 -5.81389328E-03 -4.32858512E-03 -1.72011006E-03  2.69479283E-03  1.23351906E-03
  4.60989170E-03  5.51859523E-03 -2.56156386E-03  1.12395797E-03  6.10213198E-04
 -1.65372348E-03  2.29186654E-03  4.04648997E-04 -2.05041645E-04 -1.42193305E-04
  5.70765899E-02  5.73927115E-02  2.77767601E-03 -7.69275110E-03 -2.83522377E-03
 -5.04037572E-03 -1.30530648E-02 -5.38715947E-03 -8.43053624E-03  1.87080345E-03
 -3.20829656E-05  6.66829060E-04  1.18756111E-03  1.50772952E-03  7.54308155E-04
 -9.08217652E-04 -1.84108613E-04  7.52191598E-04 -7.42038300E-04 -3.42751068E-05
 -1.48606263E-03 -1.28631475E-03  1.31876954E-03  1.74552507E-03  1.20801832E-03
  5.70765899E-02  5.73927115E-02  2.77767601E-03  7.69275110E-03  2.83522377E-03
 -5.04037572E-03  1.30530648E-02  5.38715947E-03 -8.43053624E-03  1.87080345E-03
 -3.20829656E-05  6.66829060E-04  1.18756111E-03 -1.50772952E-03 -7.54308155E-04
 -9.08217652E-04  1.84108613E-04 -7.52191598E-04 -7.42038300E-04 -3.42751068E-05
 -1.48606263E-03 -1.28631475E-03  1.31876954E-03 -1.74552507E-03 -1.20801832E-03
 -4.92253630E-03  3.69162806E-01  9.89060732E-02  2.38879889E-01  3.76283303E-02
  4.68522788E-02  2.13111921E-02  4.09330268E-02  4.91673836E-02  2.35932738E-02
  1.09799431E-02  9.43098234E-03  9.79365245E-03  3.88226957E-03 -3.41534641E-03
  1.83329610E-03  6.82657234E-04  2.94045630E-03  8.56244249E-04  3.57614157E-03
 -1.67212940E-02 -3.40893330E-05  1.19452060E-03  4.42798382E-03  1.69433375E-03
  2.30316354E-03  4.29634167E-03  6.38101628E-04  9.64409158E-04  1.59166771E-03
  1.74566100E-03  1.28885019E-03  1.14223381E-03  2.38108965E-04  5.92554554E-04
  3.02999944E-02 -3.00982825E-04 -3.54312695E-03 -7.50406046E-04 -4.10178093E-03
 -7.06768099E-03 -2.66321271E-03 -4.12308215E-04 -1.75980721E-03 -1.38790759E-03
 -1.11463336E-03  1.02857165E-02 -1.02271254E-03 -3.13407562E-04  2.16855990E-03
 -5.64003287E-04 -5.53207139E-04  2.46805345E-03 -6.28817149E-04  3.92928817E-04
  4.92253630E-03 -3.69162806E-01 -9.89060732E-02 -2.38879889E-01  3.76283303E-02
  4.68522788E-02 -2.13111921E-02  4.09330268E-02  4.91673836E-02 -2.35932738E-02
  1.09799431E-02  9.43098234E-03 -9.79365245E-03 -3.88226957E-03  3.41534641E-03
 -1.83329610E-03 -6.82657234E-04  2.94045630E-03  8.56244249E-04 -3.57614157E-03
  1.67212940E-02  3.40893330E-05 -1.19452060E-03  4.42798382E-03  1.69433375E-03
  2.30316354E-03  4.29634167E-03 -6.38101628E-04  9.64409158E-04  1.59166771E-03
 -1.74566100E-03  1.28885019E-03  1.14223381E-03 -2.38108965E-04 -5.92554554E-04
 -3.02999944E-02 -3.00982825E-04 -3.54312695E-03  7.50406046E-04  4.10178093E-03
  7.06768099E-03  2.66321271E-03  4.12308215E-04 -1.75980721E-03 -1.38790759E-03
 -1.11463336E-03  1.02857165E-02  1.02271254E-03 -3.13407562E-04  2.16855990E-03
  5.64003287E-04 -5.53207139E-04  2.46805345E-03  6.28817149E-04 -3.92928817E-04
  8.35482041E-02  8.26481003E-02  7.59924657E-03 -1.04839345E-02 -1.49481630E-03
 -7.04839108E-03 -1.33393463E-02 -7.33831980E-04 -9.33086097E-03  2.97277949E-03
 -5.13602847E-04  1.13155131E-03  5.12303467E-04  2.69070281E-03  3.34299844E-04
 -8.11991458E-04  3.71396118E-04  8.37627362E-04  6.20843980E-04 -7.24409260E-04
 -1.74518536E-03 -1.17206288E-03  2.29988427E-04  8.40295792E-04 -2.20467640E-06
 -8.35482041E-02 -8.26481003E-02 -7.59924657E-03 -1.04839345E-02 -1.49481630E-03
  7.04839108E-03 -1.33393463E-02 -7.33831980E-04  9.33086097E-03 -2.97277949E-03
  5.13602847E-04 -1.13155131E-03 -5.12303467E-04  2.69070281E-03  3.34299844E-04
  8.11991458E-04  3.71396118E-04  8.37627362E-04 -6.20843980E-04  7.24409260E-04
  1.74518536E-03  1.17206288E-03 -2.29988427E-04  8.40295792E-04 -2.20467640E-06
 -2.50618606E-03 -4.25967988E-02 -1.03316598E-02 -5.92990187E-02  8.90226889E-02
  1.11696171E-01  1.74926687E-01  9.60176433E-02  1.29276241E-01  1.96058640E-01
  5.64683276E-02  6.01127478E-02  1.03643077E-01  5.03013252E-03 -6.64260511E-03
  3.59775832E-03  2.26929709E-03  5.19154586E-03 -1.20714344E-03  1.15127618E-02
 -2.07369900E-02  1.04835595E-02  4.61883648E-03  1.18913520E-02 -6.17230292E-03
  4.03250421E-03  9.14267191E-03  7.06767139E-03  1.63763908E-03  2.02364546E-03
  5.17143749E-03  3.27802054E-03  1.54565127E-03  6.31089773E-03  1.19829551E-03
 -3.13809859E-02 -3.94341646E-03  3.40075747E-03  1.75831854E-03  7.63639714E-03
 -2.72772951E-03  8.45963791E-03 -1.98643239E-03  4.59582236E-03  1.39416883E-04
  3.74327171E-03  1.22551736E-02  1.09971666E-02  2.47417144E-04  3.17484148E-03
  7.09170482E-03  2.55909019E-03  1.91292687E-03  7.05620748E-03 -5.70238525E-04
 -2.50618606E-03 -4.25967988E-02 -1.03316598E-02 -5.92990187E-02 -8.90226889E-02
 -1.11696171E-01  1.74926687E-01 -9.60176433E-02 -1.29276241E-01  1.96058640E-01
 -5.64683276E-02 -6.01127478E-02  1.03643077E-01  5.03013252E-03 -6.64260511E-03
  3.59775832E-03  2.26929709E-03 -5.19154586E-03  1.20714344E-03  1.15127618E-02
 -2.07369900E-02  1.04835595E-02  4.61883648E-03 -1.18913520E-02  6.17230292E-03
 -4.03250421E-03 -9.14267191E-03  7.06767139E-03 -1.63763908E-03 -2.02364546E-03
  5.17143749E-03 -3.27802054E-03 -1.54565127E-03  6.31089773E-03  1.19829551E-03
 -3.13809859E-02  3.94341646E-03 -3.40075747E-03  1.75831854E-03  7.63639714E-03