## xsf file generated by critic2
CRYSTAL
PRIMVEC
  5.56500000000074E+00   0.00000000000000E+00   0.00000000000000E+00
  3.40757971862796E-16   5.56500000000074E+00   0.00000000000000E+00
  2.86812280360428E-16   2.86812280360428E-16   4.68400000000193E+00
CONVVEC
  5.56500000000074E+00   0.00000000000000E+00   0.00000000000000E+00
  3.40757971862796E-16   5.56500000000074E+00   0.00000000000000E+00
  2.86812280360428E-16   2.86812280360428E-16   4.68400000000193E+00
PRIMCOORD
16 1
6   2.63879789328898E-16   2.78250000000037E+00   1.52698400000063E+00
6   2.78250000000037E+00   1.93311476962929E-16   3.15701600000130E+00
8   3.41118336429961E-16   2.78250000000037E+00   2.78838520000115E+00
8   2.78250000000037E+00   1.16072929861865E-16   1.89561480000078E+00
7   8.11933500000108E-01   3.59443350000048E+00   8.27194400000341E-01
7   1.97056650000026E+00   8.11933500000108E-01   3.85680560000159E+00
7   4.75306650000063E+00   1.97056650000026E+00   8.27194400000341E-01
7   3.59443350000048E+00   4.75306650000063E+00   3.85680560000159E+00
1   1.43298750000019E+00   4.21548750000056E+00   1.32416680000055E+00
1   1.34951250000018E+00   1.43298750000019E+00   3.35983320000138E+00
1   4.13201250000055E+00   1.34951250000018E+00   1.32416680000055E+00
1   4.21548750000056E+00   4.13201250000055E+00   3.35983320000138E+00
1   8.01916500000107E-01   3.58441650000048E+00   4.50600800000186E+00
1   1.98058350000026E+00   8.01916500000107E-01   1.77992000000073E-01
1   4.76308350000063E+00   1.98058350000026E+00   4.50600800000186E+00
1   3.58441650000048E+00   4.76308350000063E+00   1.77992000000073E-01
BEGIN_BLOCK_DATAGRID3D
critic2:grid
DATAGRID_3D_GRID
11 11 11
   0.00000000000000E+00   0.00000000000000E+00   0.00000000000000E+00
   5.56500000000074E+00   0.00000000000000E+00   0.00000000000000E+00
   3.40757971862796E-16   5.56500000000074E+00   0.00000000000000E+00
   2.86812280360428E-16   2.86812280360428E-16   4.68400000000193E+00
   1.81010811879868E-03   3.21544525705186E-03   1.03819651317634E-02   2.80981842334710E-02   3.31729925396823E-02
   2.52671568914084E-02   3.31729925396823E-02   2.80981842334710E-02   1.03819651317634E-02   3.21544525705186E-03
   1.81010811879868E-03   3.21544525705186E-03   5.13463831390508E-03   2.42558538922645E-02   1.08434103591552E-01
   1.23398370188418E-01   3.31729925396823E-02   1.23584881935943E-02   8.73135754504554E-03   7.04032557007510E-03
   5.13463831390508E-03   3.21544525705186E-03   1.03819651317634E-02   7.04032557007510E-03   2.41927862519533E-02
   9.79261619620182E-02   1.08434103591552E-01   2.80981842334710E-02   8.73135754504554E-03   1.15892764081911E-02
   2.41927862519533E-02   2.42558538922645E-02   1.03819651317634E-02   2.80981842334710E-02   8.73135754504554E-03
   1.15892764081911E-02   2.41927862519533E-02   2.42558538922645E-02   1.03819651317634E-02   7.04032557007511E-03
   2.41927862519533E-02   9.79261619620182E-02   1.08434103591552E-01   2.80981842334710E-02   3.31729925396822E-02
   1.23584881935943E-02   8.73135754504554E-03   7.04032557007510E-03   5.13463831390508E-03   3.21544525705186E-03
   5.13463831390509E-03   2.42558538922646E-02   1.08434103591552E-01   1.23398370188418E-01   3.31729925396822E-02
   2.52671568914084E-02   3.31729925396822E-02   2.80981842334710E-02   1.03819651317634E-02   3.21544525705186E-03
   1.81010811879868E-03   3.21544525705187E-03   1.03819651317635E-02   2.80981842334710E-02   3.31729925396823E-02
   2.52671568914084E-02   3.31729925396822E-02   1.23398370188418E-01   1.08434103591552E-01   2.42558538922645E-02
   5.13463831390509E-03   3.21544525705186E-03   5.13463831390509E-03   7.04032557007511E-03   8.73135754504554E-03
   1.23584881935943E-02   3.31729925396822E-02   2.80981842334710E-02   1.08434103591552E-01   9.79261619620180E-02
   2.41927862519532E-02   7.04032557007510E-03   1.03819651317635E-02   2.42558538922646E-02   2.41927862519533E-02
   1.15892764081911E-02   8.73135754504555E-03   2.80981842334710E-02   1.03819651317634E-02   2.42558538922645E-02
   2.41927862519533E-02   1.15892764081911E-02   8.73135754504555E-03   2.80981842334712E-02   1.08434103591552E-01
   9.79261619620180E-02   2.41927862519533E-02   7.04032557007511E-03   1.03819651317634E-02   3.21544525705186E-03
   5.13463831390508E-03   7.04032557007510E-03   8.73135754504555E-03   1.23584881935943E-02   3.31729925396824E-02
   1.23398370188418E-01   1.08434103591551E-01   2.42558538922645E-02   5.13463831390509E-03   3.21544525705186E-03
   1.81010811879868E-03   3.21544525705186E-03   1.03819651317634E-02   2.80981842334710E-02   3.31729925396823E-02
   2.52671568914084E-02   3.31729925396823E-02   2.80981842334710E-02   1.03819651317634E-02   3.21544525705186E-03
   1.81010811879868E-03   1.82813846340789E-03   2.81195341259156E-03   6.93009254741329E-03   1.59417794613885E-02
   1.93601760637373E-02   1.65393051232808E-02   1.93601760637373E-02   1.59417794613885E-02   6.93009254741329E-03
   2.81195341259156E-03   1.82813846340789E-03   3.85516007620107E-03   3.62458966323089E-03   1.27141108382070E-02
   5.40291979511276E-02   6.29005694100149E-02   1.93601760637373E-02   9.82493570915660E-03   9.87666756746438E-03
   1.02489842908858E-02   7.52126764256338E-03   3.85516007620107E-03   1.65357479538646E-02   6.07909513133543E-03
   1.25446907869106E-02   4.77772111082305E-02   5.40291979511276E-02   1.59417794613885E-02   9.87666756746438E-03
   2.35408930283658E-02   5.24408727489698E-02   4.94475367604165E-02   1.65357479538646E-02   5.71936219746323E-02
   1.15089440763146E-02   7.65485825618214E-03   1.25446907869106E-02   1.27141108382070E-02   6.93009254741329E-03
   1.02489842908858E-02   5.24408727489699E-02   2.70860926307150E-01   2.92523197829471E-01   5.71936219746323E-02
   7.43009699842013E-02   2.33875089618134E-02   1.15089440763146E-02   6.07909513133543E-03   3.62458966323089E-03
   2.81195341259157E-03   7.52126764256340E-03   4.94475367604167E-02   2.92523197829472E-01   3.26165172654607E-01
   7.43009699842013E-02   6.08996242038005E-02   7.43009699842013E-02   5.71936219746323E-02   1.65357479538646E-02
   3.85516007620107E-03   1.82813846340789E-03   3.85516007620108E-03   1.65357479538647E-02   5.71936219746324E-02
   7.43009699842013E-02   6.08996242038005E-02   7.43009699842013E-02   3.26165172654608E-01   2.92523197829472E-01
   4.94475367604165E-02   7.52126764256339E-03   2.81195341259157E-03   3.62458966323089E-03   6.07909513133543E-03
   1.15089440763146E-02   2.33875089618134E-02   7.43009699842013E-02   5.71936219746323E-02   2.92523197829471E-01
   2.70860926307150E-01   5.24408727489697E-02   1.02489842908858E-02   6.93009254741331E-03   1.27141108382071E-02
   1.25446907869106E-02   7.65485825618216E-03   1.15089440763146E-02   5.71936219746323E-02   1.65357479538646E-02
   4.94475367604166E-02   5.24408727489698E-02   2.35408930283657E-02   9.87666756746438E-03   1.59417794613886E-02
   5.40291979511277E-02   4.77772111082304E-02   1.25446907869106E-02   6.07909513133544E-03   1.65357479538646E-02
   3.85516007620107E-03   7.52126764256339E-03   1.02489842908858E-02   9.87666756746438E-03   9.82493570915659E-03
   1.93601760637374E-02   6.29005694100150E-02   5.40291979511274E-02   1.27141108382071E-02   3.62458966323089E-03
   3.85516007620107E-03   1.82813846340789E-03   2.81195341259156E-03   6.93009254741329E-03   1.59417794613885E-02
   1.93601760637373E-02   1.65393051232808E-02   1.93601760637373E-02   1.59417794613885E-02   6.93009254741329E-03
   2.81195341259156E-03   1.82813846340789E-03   1.77883574417556E-03   2.56811249489289E-03   5.20981519453027E-03
   1.08910811378341E-02   2.57057023434402E-02   4.46017399697603E-02   2.57057023434402E-02   1.08910811378341E-02
   5.20981519453027E-03   2.56811249489289E-03   1.77883574417556E-03   4.06615239602801E-03   2.63286433440302E-03
   5.79656426699223E-03   1.61993334894151E-02   2.49144530706522E-02   2.57057023434403E-02   1.69137796984491E-02
   1.59925605261511E-02   1.55428699542934E-02   9.25284190695301E-03   4.06615239602801E-03   1.93950026116750E-02
   5.67111444730079E-03   5.95562555289318E-03   1.37556592680231E-02   1.61993334894151E-02   1.08910811378341E-02
   1.59925605261511E-02   5.72130255698120E-02   8.87742507615865E-02   6.45912226671957E-02   1.93950026116750E-02
   7.77226098555096E-02   1.61944745368222E-02   6.44010146136204E-03   5.95562555289318E-03   5.79656426699222E-03
   5.20981519453026E-03   1.55428699542934E-02   8.87742507615866E-02   4.12917326466890E-01   4.31408439220362E-01
   7.77226098555096E-02   1.42487736925786E-01   5.08643526374614E-02   1.61944745368222E-02   5.67111444730078E-03
   2.63286433440302E-03   2.56811249489289E-03   9.25284190695303E-03   6.45912226671960E-02   4.31408439220363E-01
   4.97614042118310E-01   1.42487736925786E-01   1.86636787090968E-01   1.42487736925786E-01   7.77226098555096E-02
   1.93950026116749E-02   4.06615239602801E-03   1.77883574417556E-03   4.06615239602802E-03   1.93950026116750E-02
   7.77226098555097E-02   1.42487736925786E-01   1.86636787090968E-01   1.42487736925786E-01   4.97614042118311E-01
   4.31408439220363E-01   6.45912226671958E-02   9.25284190695302E-03   2.56811249489290E-03   2.63286433440302E-03
   5.67111444730080E-03   1.61944745368222E-02   5.08643526374614E-02   1.42487736925786E-01   7.77226098555097E-02
   4.31408439220362E-01   4.12917326466889E-01   8.87742507615863E-02   1.55428699542933E-02   5.20981519453027E-03
   5.79656426699224E-03   5.95562555289318E-03   6.44010146136204E-03   1.61944745368222E-02   7.77226098555097E-02
   1.93950026116750E-02   6.45912226671957E-02   8.87742507615863E-02   5.72130255698119E-02   1.59925605261511E-02
   1.08910811378341E-02   1.61993334894151E-02   1.37556592680230E-02   5.95562555289318E-03   5.67111444730080E-03
   1.93950026116750E-02   4.06615239602801E-03   9.25284190695301E-03   1.55428699542933E-02   1.59925605261511E-02
   1.69137796984491E-02   2.57057023434403E-02   2.49144530706522E-02   1.61993334894151E-02   5.79656426699223E-03
   2.63286433440302E-03   4.06615239602801E-03   1.77883574417556E-03   2.56811249489289E-03   5.20981519453027E-03
   1.08910811378341E-02   2.57057023434402E-02   4.46017399697603E-02   2.57057023434402E-02   1.08910811378341E-02
   5.20981519453027E-03   2.56811249489289E-03   1.77883574417556E-03   1.53306139547234E-03   2.21388412635902E-03
   4.60504398185183E-03   1.53945606796954E-02   1.23398553982581E-01   4.34857430993107E-01   1.23398553982581E-01
   1.53945606796953E-02   4.60504398185183E-03   2.21388412635902E-03   1.53306139547234E-03   3.28620228343296E-03
   1.97936010457176E-03   3.20501720296248E-03   1.02615835739491E-02   5.01016013299665E-02   1.23398553982581E-01
   5.25098727021704E-02   2.19541533854202E-02   1.65993536000624E-02   7.88184938037693E-03   3.28620228343296E-03
   1.34414605223294E-02   4.85862461979223E-03   3.38607566369653E-03   5.40205961023319E-03   1.02615835739491E-02
   1.53945606796953E-02   2.19541533854201E-02   8.85814109870411E-02   8.82261985006114E-02   3.81545067730082E-02
   1.34414605223294E-02   5.35622521324973E-02   1.88308979264532E-02   6.28818424673717E-03   3.38607566369653E-03
   3.20501720296248E-03   4.60504398185182E-03   1.65993536000624E-02   8.82261985006114E-02   1.79417776238915E-01
   1.57571993193971E-01   5.35622521324973E-02   1.94482009229158E-01   8.52981813551581E-02   1.88308979264532E-02
   4.85862461979223E-03   1.97936010457176E-03   2.21388412635902E-03   7.88184938037694E-03   3.81545067730083E-02
   1.57571993193971E-01   2.26531500789083E-01   1.94482009229158E-01   8.62572528743952E+00   1.94482009229157E-01
   5.35622521324973E-02   1.34414605223294E-02   3.28620228343296E-03   1.53306139547234E-03   3.28620228343296E-03
   1.34414605223294E-02   5.35622521324973E-02   1.94482009229158E-01   8.62572528743952E+00   1.94482009229157E-01
   2.26531500789083E-01   1.57571993193971E-01   3.81545067730082E-02   7.88184938037695E-03   2.21388412635903E-03
   1.97936010457176E-03   4.85862461979225E-03   1.88308979264532E-02   8.52981813551581E-02   1.94482009229157E-01
   5.35622521324973E-02   1.57571993193971E-01   1.79417776238915E-01   8.82261985006114E-02   1.65993536000624E-02
   4.60504398185182E-03   3.20501720296249E-03   3.38607566369653E-03   6.28818424673715E-03   1.88308979264532E-02
   5.35622521324973E-02   1.34414605223294E-02   3.81545067730082E-02   8.82261985006112E-02   8.85814109870409E-02
   2.19541533854201E-02   1.53945606796953E-02   1.02615835739491E-02   5.40205961023318E-03   3.38607566369653E-03
   4.85862461979224E-03   1.34414605223294E-02   3.28620228343296E-03   7.88184938037693E-03   1.65993536000624E-02
   2.19541533854201E-02   5.25098727021705E-02   1.23398553982581E-01   5.01016013299662E-02   1.02615835739491E-02
   3.20501720296249E-03   1.97936010457176E-03   3.28620228343296E-03   1.53306139547234E-03   2.21388412635902E-03
   4.60504398185183E-03   1.53945606796954E-02   1.23398553982581E-01   4.34857430993107E-01   1.23398553982581E-01
   1.53945606796953E-02   4.60504398185183E-03   2.21388412635902E-03   1.53306139547234E-03   1.20002771301275E-03
   1.76657713824273E-03   4.27250598937452E-03   2.26713287549482E-02   3.19430440395758E-01   1.61676920045415E+02
   3.19430440395757E-01   2.26713287549480E-02   4.27250598937452E-03   1.76657713824273E-03   1.20002771301275E-03
   2.21373625074536E-03   1.77002687256208E-03   3.22251521547126E-03   1.32704934867376E-02   1.00357902976472E-01
   3.19430440395758E-01   1.02356383829647E-01   1.97141613000309E-02   9.99413443316923E-03   4.66358984399558E-03
   2.21373625074536E-03   7.30907475390762E-03   4.15492270984809E-03   3.56536606272218E-03   5.49291746565434E-03
   1.32704934867375E-02   2.26713287549481E-02   1.97141613000309E-02   3.18534231430062E-02   3.07865930093356E-02
   1.48637775706230E-02   7.30907475390762E-03   3.06999783152675E-02   1.63895147289849E-02   6.44421126541558E-03
   3.56536606272218E-03   3.22251521547126E-03   4.27250598937451E-03   9.99413443316921E-03   3.07865930093356E-02
   4.38633322621743E-02   3.95135930035246E-02   3.06999783152675E-02   1.52935916163887E-01   7.42211213301958E-02
   1.63895147289849E-02   4.15492270984809E-03   1.77002687256208E-03   1.76657713824273E-03   4.66358984399557E-03
   1.48637775706230E-02   3.95135930035246E-02   9.43664734771780E-02   1.52935916163887E-01   3.42102915803988E-01
   1.52935916163887E-01   3.06999783152674E-02   7.30907475390761E-03   2.21373625074536E-03   1.20002771301275E-03
   2.21373625074536E-03   7.30907475390763E-03   3.06999783152674E-02   1.52935916163887E-01   3.42102915803988E-01
   1.52935916163887E-01   9.43664734771779E-02   3.95135930035246E-02   1.48637775706230E-02   4.66358984399558E-03
   1.76657713824273E-03   1.77002687256208E-03   4.15492270984810E-03   1.63895147289849E-02   7.42211213301957E-02
   1.52935916163887E-01   3.06999783152674E-02   3.95135930035245E-02   4.38633322621743E-02   3.07865930093356E-02
   9.99413443316921E-03   4.27250598937452E-03   3.22251521547126E-03   3.56536606272219E-03   6.44421126541557E-03
   1.63895147289849E-02   3.06999783152674E-02   7.30907475390762E-03   1.48637775706230E-02   3.07865930093355E-02
   3.18534231430061E-02   1.97141613000309E-02   2.26713287549481E-02   1.32704934867375E-02   5.49291746565432E-03
   3.56536606272218E-03   4.15492270984809E-03   7.30907475390762E-03   2.21373625074536E-03   4.66358984399557E-03
   9.99413443316921E-03   1.97141613000310E-02   1.02356383829647E-01   3.19430440395758E-01   1.00357902976471E-01
   1.32704934867374E-02   3.22251521547127E-03   1.77002687256208E-03   2.21373625074536E-03   1.20002771301275E-03
   1.76657713824273E-03   4.27250598937452E-03   2.26713287549482E-02   3.19430440395758E-01   1.61676920045415E+02
   3.19430440395757E-01   2.26713287549480E-02   4.27250598937452E-03   1.76657713824273E-03   1.20002771301275E-03
   1.04515429883892E-03   1.65406000112356E-03   4.63614390824571E-03   2.25434545534283E-02   1.76956014522463E-01
   6.00274112437116E-01   1.76956014522462E-01   2.25434545534282E-02   4.63614390824571E-03   1.65406000112356E-03
   1.04515429883892E-03   1.65406000112356E-03   2.44477190623445E-03   5.72348487191774E-03   1.71912562514907E-02
   7.59188728522057E-02   1.76956014522463E-01   7.38945212082993E-02   1.53188439178921E-02   5.15386898390257E-03
   2.44477190623445E-03   1.65406000112356E-03   4.63614390824571E-03   5.15386898390257E-03   8.37067963167639E-03
   1.17185623822160E-02   1.71912562514906E-02   2.25434545534282E-02   1.53188439178921E-02   1.03758002875213E-02
   8.37067963167640E-03   5.72348487191775E-03   4.63614390824571E-03   2.25434545534283E-02   1.53188439178921E-02
   1.03758002875213E-02   8.37067963167639E-03   5.72348487191773E-03   4.63614390824570E-03   5.15386898390256E-03
   8.37067963167640E-03   1.17185623822160E-02   1.71912562514907E-02   2.25434545534283E-02   1.76956014522463E-01
   7.38945212082995E-02   1.53188439178921E-02   5.15386898390255E-03   2.44477190623445E-03   1.65406000112356E-03
   2.44477190623445E-03   5.72348487191775E-03   1.71912562514907E-02   7.59188728522056E-02   1.76956014522463E-01
   6.00274112437115E-01   1.76956014522463E-01   2.25434545534282E-02   4.63614390824571E-03   1.65406000112356E-03
   1.04515429883892E-03   1.65406000112356E-03   4.63614390824571E-03   2.25434545534282E-02   1.76956014522463E-01
   6.00274112437115E-01   1.76956014522462E-01   7.59188728522054E-02   1.71912562514906E-02   5.72348487191774E-03
   2.44477190623445E-03   1.65406000112356E-03   2.44477190623445E-03   5.15386898390257E-03   1.53188439178921E-02
   7.38945212082993E-02   1.76956014522462E-01   2.25434545534282E-02   1.71912562514906E-02   1.17185623822160E-02
   8.37067963167640E-03   5.15386898390256E-03   4.63614390824571E-03   5.72348487191775E-03   8.37067963167640E-03
   1.03758002875213E-02   1.53188439178921E-02   2.25434545534282E-02   4.63614390824571E-03   5.72348487191774E-03
   8.37067963167640E-03   1.03758002875213E-02   1.53188439178921E-02   2.25434545534282E-02   1.71912562514906E-02
   1.17185623822160E-02   8.37067963167639E-03   5.15386898390257E-03   4.63614390824571E-03   1.65406000112356E-03
   2.44477190623445E-03   5.15386898390257E-03   1.53188439178921E-02   7.38945212082998E-02   1.76956014522463E-01
   7.59188728522050E-02   1.71912562514905E-02   5.72348487191774E-03   2.44477190623445E-03   1.65406000112356E-03
   1.04515429883892E-03   1.65406000112356E-03   4.63614390824571E-03   2.25434545534283E-02   1.76956014522463E-01
   6.00274112437116E-01   1.76956014522462E-01   2.25434545534282E-02   4.63614390824571E-03   1.65406000112356E-03
   1.04515429883892E-03   1.20002771301275E-03   2.21373625074536E-03   7.30907475390761E-03   3.06999783152674E-02
   1.52935916163887E-01   3.42102915803988E-01   1.52935916163887E-01   3.06999783152674E-02   7.30907475390762E-03
   2.21373625074536E-03   1.20002771301275E-03   1.76657713824273E-03   4.66358984399557E-03   1.48637775706230E-02
   3.95135930035245E-02   9.43664734771778E-02   1.52935916163887E-01   7.42211213301956E-02   1.63895147289849E-02
   4.15492270984810E-03   1.77002687256208E-03   1.76657713824273E-03   4.27250598937453E-03   9.99413443316922E-03
   3.07865930093355E-02   4.38633322621742E-02   3.95135930035245E-02   3.06999783152674E-02   1.63895147289849E-02
   6.44421126541557E-03   3.56536606272218E-03   3.22251521547127E-03   4.27250598937453E-03   2.26713287549482E-02
   1.97141613000310E-02   3.18534231430061E-02   3.07865930093355E-02   1.48637775706230E-02   7.30907475390761E-03
   4.15492270984809E-03   3.56536606272218E-03   5.49291746565434E-03   1.32704934867376E-02   2.26713287549482E-02
   3.19430440395758E-01   1.02356383829647E-01   1.97141613000309E-02   9.99413443316921E-03   4.66358984399557E-03
   2.21373625074536E-03   1.77002687256208E-03   3.22251521547127E-03   1.32704934867375E-02   1.00357902976472E-01
   3.19430440395758E-01   1.61676920045417E+02   3.19430440395758E-01   2.26713287549481E-02   4.27250598937453E-03
   1.76657713824273E-03   1.20002771301275E-03   1.76657713824273E-03   4.27250598937452E-03   2.26713287549481E-02
   3.19430440395758E-01   1.61676920045417E+02   3.19430440395757E-01   1.00357902976472E-01   1.32704934867375E-02
   3.22251521547127E-03   1.77002687256208E-03   2.21373625074536E-03   4.66358984399557E-03   9.99413443316922E-03
   1.97141613000309E-02   1.02356383829647E-01   3.19430440395757E-01   2.26713287549481E-02   1.32704934867375E-02
   5.49291746565433E-03   3.56536606272218E-03   4.15492270984810E-03   7.30907475390763E-03   1.48637775706231E-02
   3.07865930093356E-02   3.18534231430061E-02   1.97141613000309E-02   2.26713287549481E-02   4.27250598937452E-03
   3.22251521547126E-03   3.56536606272218E-03   6.44421126541557E-03   1.63895147289849E-02   3.06999783152674E-02
   3.95135930035245E-02   4.38633322621742E-02   3.07865930093356E-02   9.99413443316923E-03   4.27250598937452E-03
   1.76657713824272E-03   1.77002687256208E-03   4.15492270984809E-03   1.63895147289849E-02   7.42211213301957E-02
   1.52935916163887E-01   9.43664734771775E-02   3.95135930035244E-02   1.48637775706230E-02   4.66358984399558E-03
   1.76657713824272E-03   1.20002771301275E-03   2.21373625074536E-03   7.30907475390761E-03   3.06999783152674E-02
   1.52935916163887E-01   3.42102915803988E-01   1.52935916163887E-01   3.06999783152674E-02   7.30907475390762E-03
   2.21373625074536E-03   1.20002771301275E-03   1.53306139547234E-03   3.28620228343296E-03   1.34414605223294E-02
   5.35622521324973E-02   1.94482009229157E-01   8.62572528743952E+00   1.94482009229157E-01   5.35622521324972E-02
   1.34414605223294E-02   3.28620228343296E-03   1.53306139547234E-03   2.21388412635902E-03   7.88184938037693E-03
   3.81545067730081E-02   1.57571993193971E-01   2.26531500789083E-01   1.94482009229158E-01   8.52981813551581E-02
   1.88308979264532E-02   4.85862461979224E-03   1.97936010457176E-03   2.21388412635902E-03   4.60504398185183E-03
   1.65993536000624E-02   8.82261985006113E-02   1.79417776238915E-01   1.57571993193971E-01   5.35622521324973E-02
   1.88308979264532E-02   6.28818424673715E-03   3.38607566369653E-03   3.20501720296249E-03   4.60504398185183E-03
   1.53945606796954E-02   2.19541533854202E-02   8.85814109870410E-02   8.82261985006112E-02   3.81545067730082E-02
   1.34414605223294E-02   4.85862461979224E-03   3.38607566369653E-03   5.40205961023320E-03   1.02615835739491E-02
   1.53945606796954E-02   1.23398553982581E-01   5.25098727021705E-02   2.19541533854202E-02   1.65993536000624E-02
   7.88184938037694E-03   3.28620228343296E-03   1.97936010457176E-03   3.20501720296249E-03   1.02615835739491E-02
   5.01016013299665E-02   1.23398553982581E-01   4.34857430993107E-01   1.23398553982581E-01   1.53945606796953E-02
   4.60504398185183E-03   2.21388412635903E-03   1.53306139547234E-03   2.21388412635902E-03   4.60504398185183E-03
   1.53945606796954E-02   1.23398553982581E-01   4.34857430993107E-01   1.23398553982581E-01   5.01016013299665E-02
   1.02615835739491E-02   3.20501720296248E-03   1.97936010457176E-03   3.28620228343295E-03   7.88184938037693E-03
   1.65993536000624E-02   2.19541533854201E-02   5.25098727021704E-02   1.23398553982581E-01   1.53945606796953E-02
   1.02615835739491E-02   5.40205961023320E-03   3.38607566369653E-03   4.85862461979224E-03   1.34414605223294E-02
   3.81545067730083E-02   8.82261985006117E-02   8.85814109870412E-02   2.19541533854202E-02   1.53945606796953E-02
   4.60504398185183E-03   3.20501720296249E-03   3.38607566369653E-03   6.28818424673716E-03   1.88308979264532E-02
   5.35622521324974E-02   1.57571993193971E-01   1.79417776238915E-01   8.82261985006115E-02   1.65993536000625E-02
   4.60504398185183E-03   2.21388412635902E-03   1.97936010457176E-03   4.85862461979224E-03   1.88308979264532E-02
   8.52981813551581E-02   1.94482009229158E-01   2.26531500789083E-01   1.57571993193971E-01   3.81545067730083E-02
   7.88184938037695E-03   2.21388412635902E-03   1.53306139547234E-03   3.28620228343296E-03   1.34414605223294E-02
   5.35622521324973E-02   1.94482009229157E-01   8.62572528743952E+00   1.94482009229157E-01   5.35622521324972E-02
   1.34414605223294E-02   3.28620228343296E-03   1.53306139547234E-03   1.77883574417556E-03   4.06615239602801E-03
   1.93950026116750E-02   7.77226098555097E-02   1.42487736925786E-01   1.86636787090968E-01   1.42487736925786E-01
   7.77226098555096E-02   1.93950026116749E-02   4.06615239602801E-03   1.77883574417556E-03   2.56811249489289E-03
   9.25284190695301E-03   6.45912226671957E-02   4.31408439220362E-01   4.97614042118311E-01   1.42487736925786E-01
   5.08643526374613E-02   1.61944745368222E-02   5.67111444730078E-03   2.63286433440302E-03   2.56811249489289E-03
   5.20981519453027E-03   1.55428699542934E-02   8.87742507615863E-02   4.12917326466890E-01   4.31408439220363E-01
   7.77226098555098E-02   1.61944745368222E-02   6.44010146136204E-03   5.95562555289318E-03   5.79656426699224E-03
   5.20981519453027E-03   1.08910811378341E-02   1.59925605261511E-02   5.72130255698120E-02   8.87742507615863E-02
   6.45912226671957E-02   1.93950026116750E-02   5.67111444730078E-03   5.95562555289318E-03   1.37556592680231E-02
   1.61993334894152E-02   1.08910811378341E-02   2.57057023434403E-02   1.69137796984491E-02   1.59925605261511E-02
   1.55428699542934E-02   9.25284190695302E-03   4.06615239602801E-03   2.63286433440301E-03   5.79656426699223E-03
   1.61993334894152E-02   2.49144530706523E-02   2.57057023434403E-02   4.46017399697604E-02   2.57057023434403E-02
   1.08910811378341E-02   5.20981519453027E-03   2.56811249489290E-03   1.77883574417556E-03   2.56811249489289E-03
   5.20981519453027E-03   1.08910811378341E-02   2.57057023434402E-02   4.46017399697604E-02   2.57057023434402E-02
   2.49144530706522E-02   1.61993334894151E-02   5.79656426699223E-03   2.63286433440302E-03   4.06615239602800E-03
   9.25284190695305E-03   1.55428699542934E-02   1.59925605261512E-02   1.69137796984490E-02   2.57057023434402E-02
   1.08910811378341E-02   1.61993334894151E-02   1.37556592680231E-02   5.95562555289318E-03   5.67111444730079E-03
   1.93950026116750E-02   6.45912226671959E-02   8.87742507615865E-02   5.72130255698120E-02   1.59925605261511E-02
   1.08910811378341E-02   5.20981519453026E-03   5.79656426699222E-03   5.95562555289317E-03   6.44010146136204E-03
   1.61944745368222E-02   7.77226098555101E-02   4.31408439220364E-01   4.12917326466888E-01   8.87742507615863E-02
   1.55428699542934E-02   5.20981519453026E-03   2.56811249489289E-03   2.63286433440302E-03   5.67111444730079E-03
   1.61944745368222E-02   5.08643526374614E-02   1.42487736925787E-01   4.97614042118312E-01   4.31408439220361E-01
   6.45912226671958E-02   9.25284190695303E-03   2.56811249489289E-03   1.77883574417556E-03   4.06615239602801E-03
   1.93950026116750E-02   7.77226098555097E-02   1.42487736925786E-01   1.86636787090968E-01   1.42487736925786E-01
   7.77226098555096E-02   1.93950026116749E-02   4.06615239602801E-03   1.77883574417556E-03   1.82813846340789E-03
   3.85516007620107E-03   1.65357479538646E-02   5.71936219746323E-02   7.43009699842013E-02   6.08996242038006E-02
   7.43009699842013E-02   5.71936219746322E-02   1.65357479538646E-02   3.85516007620107E-03   1.82813846340789E-03
   2.81195341259156E-03   7.52126764256338E-03   4.94475367604165E-02   2.92523197829472E-01   3.26165172654608E-01
   7.43009699842012E-02   2.33875089618133E-02   1.15089440763146E-02   6.07909513133542E-03   3.62458966323089E-03
   2.81195341259156E-03   6.93009254741329E-03   1.02489842908858E-02   5.24408727489697E-02   2.70860926307150E-01
   2.92523197829472E-01   5.71936219746322E-02   1.15089440763146E-02   7.65485825618215E-03   1.25446907869106E-02
   1.27141108382070E-02   6.93009254741329E-03   1.59417794613885E-02   9.87666756746438E-03   2.35408930283657E-02
   5.24408727489697E-02   4.94475367604165E-02   1.65357479538646E-02   6.07909513133542E-03   1.25446907869106E-02
   4.77772111082306E-02   5.40291979511277E-02   1.59417794613885E-02   1.93601760637373E-02   9.82493570915660E-03
   9.87666756746437E-03   1.02489842908858E-02   7.52126764256338E-03   3.85516007620107E-03   3.62458966323089E-03
   1.27141108382071E-02   5.40291979511276E-02   6.29005694100151E-02   1.93601760637373E-02   1.65393051232808E-02
   1.93601760637374E-02   1.59417794613886E-02   6.93009254741330E-03   2.81195341259157E-03   1.82813846340789E-03
   2.81195341259157E-03   6.93009254741330E-03   1.59417794613885E-02   1.93601760637373E-02   1.65393051232808E-02
   1.93601760637373E-02   6.29005694100151E-02   5.40291979511277E-02   1.27141108382071E-02   3.62458966323090E-03
   3.85516007620108E-03   7.52126764256341E-03   1.02489842908859E-02   9.87666756746439E-03   9.82493570915659E-03
   1.93601760637373E-02   1.59417794613885E-02   5.40291979511275E-02   4.77772111082304E-02   1.25446907869106E-02
   6.07909513133543E-03   1.65357479538648E-02   4.94475367604169E-02   5.24408727489698E-02   2.35408930283658E-02
   9.87666756746440E-03   1.59417794613885E-02   6.93009254741328E-03   1.27141108382070E-02   1.25446907869106E-02
   7.65485825618215E-03   1.15089440763146E-02   5.71936219746329E-02   2.92523197829473E-01   2.70860926307149E-01
   5.24408727489698E-02   1.02489842908859E-02   6.93009254741328E-03   2.81195341259157E-03   3.62458966323089E-03
   6.07909513133543E-03   1.15089440763146E-02   2.33875089618134E-02   7.43009699842018E-02   3.26165172654609E-01
   2.92523197829470E-01   4.94475367604165E-02   7.52126764256341E-03   2.81195341259157E-03   1.82813846340789E-03
   3.85516007620107E-03   1.65357479538646E-02   5.71936219746323E-02   7.43009699842013E-02   6.08996242038006E-02