## xsf file generated by critic2
CRYSTAL
PRIMVEC
  5.56500000000074E+00   0.00000000000000E+00   0.00000000000000E+00 
  3.40757971862796E-16   5.56500000000074E+00   0.00000000000000E+00 
  2.86812280360428E-16   2.86812280360428E-16   4.68400000000193E+00 
CONVVEC
  5.56500000000074E+00   0.00000000000000E+00   0.00000000000000E+00 
  3.40757971862796E-16   5.56500000000074E+00   0.00000000000000E+00 
  2.86812280360428E-16   2.86812280360428E-16   4.68400000000193E+00 
PRIMCOORD
16 1
6   2.63879789328898E-16   2.78250000000037E+00   1.52698400000063E+00 
6   2.78250000000037E+00   1.93311476962929E-16   3.15701600000130E+00 
8   3.41118336429961E-16   2.78250000000037E+00   2.78838520000115E+00 
8   2.78250000000037E+00   1.16072929861865E-16   1.89561480000078E+00 
7   8.11933500000108E-01   3.59443350000048E+00   8.27194400000341E-01 
7   1.97056650000026E+00   8.11933500000108E-01   3.85680560000159E+00 
7   4.75306650000063E+00   1.97056650000026E+00   8.27194400000341E-01 
7   3.59443350000048E+00   4.75306650000063E+00   3.85680560000159E+00 
1   1.43298750000019E+00   4.21548750000056E+00   1.32416680000055E+00 
1   1.34951250000018E+00   1.43298750000019E+00   3.35983320000138E+00 
1   4.13201250000055E+00   1.34951250000018E+00   1.32416680000055E+00 
1   4.21548750000056E+00   4.13201250000055E+00   3.35983320000138E+00 
1   8.01916500000107E-01   3.58441650000048E+00   4.50600800000186E+00 
1   1.98058350000026E+00   8.01916500000107E-01   1.77992000000073E-01 
1   4.76308350000063E+00   1.98058350000026E+00   4.50600800000186E+00 
1   3.58441650000048E+00   4.76308350000063E+00   1.77992000000073E-01 
BEGIN_BLOCK_DATAGRID3D
critic2:grid
DATAGRID_3D_GRID
11 11 11 
   0.00000000000000E+00   0.00000000000000E+00   0.00000000000000E+00
   5.56500000000074E+00   0.00000000000000E+00   0.00000000000000E+00
   3.40757971862796E-16   5.56500000000074E+00   0.00000000000000E+00
   2.86812280360428E-16   2.86812280360428E-16   4.68400000000193E+00
   1.81010544576250E-03   3.21544254699797E-03   1.03819607818556E-02   2.80981747506612E-02   3.31729825578232E-02
   2.52671494618745E-02   3.31729825578232E-02   2.80981747506612E-02   1.03819607818556E-02   3.21544254699798E-03
   1.81010544576250E-03   3.21544254699797E-03   5.13463532870204E-03   2.42558447788150E-02   1.08434129334143E-01
   1.23398414444380E-01   3.31729825578232E-02   1.23584845322507E-02   8.73135412903251E-03   7.04032231259201E-03
   5.13463532870204E-03   3.21544254699797E-03   1.03819607818556E-02   7.04032231259201E-03   2.41927768690131E-02
   9.79261746744384E-02   1.08434129334143E-01   2.80981747506612E-02   8.73135412903251E-03   1.15892715652161E-02
   2.41927768690131E-02   2.42558447788149E-02   1.03819607818556E-02   2.80981747506612E-02   8.73135412903252E-03
   1.15892715652161E-02   2.41927768690131E-02   2.42558447788150E-02   1.03819607818556E-02   7.04032231259201E-03
   2.41927768690132E-02   9.79261746744383E-02   1.08434129334143E-01   2.80981747506612E-02   3.31729825578232E-02
   1.23584845322507E-02   8.73135412903252E-03   7.04032231259201E-03   5.13463532870204E-03   3.21544254699797E-03
   5.13463532870205E-03   2.42558447788150E-02   1.08434129334143E-01   1.23398414444380E-01   3.31729825578232E-02
   2.52671494618745E-02   3.31729825578232E-02   2.80981747506612E-02   1.03819607818556E-02   3.21544254699797E-03
   1.81010544576250E-03   3.21544254699798E-03   1.03819607818556E-02   2.80981747506612E-02   3.31729825578232E-02
   2.52671494618745E-02   3.31729825578232E-02   1.23398414444380E-01   1.08434129334143E-01   2.42558447788149E-02
   5.13463532870204E-03   3.21544254699798E-03   5.13463532870205E-03   7.04032231259202E-03   8.73135412903251E-03
   1.23584845322507E-02   3.31729825578232E-02   2.80981747506612E-02   1.08434129334143E-01   9.79261746744382E-02
   2.41927768690131E-02   7.04032231259201E-03   1.03819607818556E-02   2.42558447788150E-02   2.41927768690132E-02
   1.15892715652162E-02   8.73135412903251E-03   2.80981747506612E-02   1.03819607818556E-02   2.42558447788150E-02
   2.41927768690131E-02   1.15892715652161E-02   8.73135412903252E-03   2.80981747506613E-02   1.08434129334144E-01
   9.79261746744381E-02   2.41927768690132E-02   7.04032231259202E-03   1.03819607818556E-02   3.21544254699798E-03
   5.13463532870204E-03   7.04032231259201E-03   8.73135412903251E-03   1.23584845322507E-02   3.31729825578233E-02
   1.23398414444381E-01   1.08434129334143E-01   2.42558447788150E-02   5.13463532870205E-03   3.21544254699798E-03
   1.81010544576250E-03   3.21544254699797E-03   1.03819607818556E-02   2.80981747506612E-02   3.31729825578232E-02
   2.52671494618745E-02   3.31729825578232E-02   2.80981747506612E-02   1.03819607818556E-02   3.21544254699798E-03
   1.81010544576250E-03   1.82813588722574E-03   2.81195059056687E-03   6.93008852989020E-03   1.59417743080073E-02
   1.93601713659448E-02   1.65393004355405E-02   1.93601713659448E-02   1.59417743080073E-02   6.93008852989020E-03
   2.81195059056687E-03   1.82813588722574E-03   3.85515764027797E-03   3.62458676496163E-03   1.27141058783770E-02
   5.40292253947272E-02   6.29006087043428E-02   1.93601713659448E-02   9.82493167651366E-03   9.87666292260479E-03
   1.02489797522269E-02   7.52126428989362E-03   3.85515764027797E-03   1.65357413303324E-02   6.07909246242155E-03
   1.25446859246764E-02   4.77772301321921E-02   5.40292253947271E-02   1.59417743080073E-02   9.87666292260479E-03
   2.35408842987226E-02   5.24408494856763E-02   4.94475141034300E-02   1.65357413303324E-02   5.71935972741296E-02
   1.15089406818438E-02   7.65485493220301E-03   1.25446859246764E-02   1.27141058783770E-02   6.93008852989020E-03
   1.02489797522269E-02   5.24408494856765E-02   2.70860938420131E-01   2.92523225203423E-01   5.71935972741296E-02
   7.43009372458843E-02   2.33875010837505E-02   1.15089406818438E-02   6.07909246242155E-03   3.62458676496162E-03
   2.81195059056687E-03   7.52126428989363E-03   4.94475141034302E-02   2.92523225203423E-01   3.26165214014098E-01
   7.43009372458843E-02   6.08995979212057E-02   7.43009372458844E-02   5.71935972741296E-02   1.65357413303324E-02
   3.85515764027797E-03   1.82813588722574E-03   3.85515764027797E-03   1.65357413303325E-02   5.71935972741297E-02
   7.43009372458844E-02   6.08995979212057E-02   7.43009372458844E-02   3.26165214014099E-01   2.92523225203423E-01
   4.94475141034300E-02   7.52126428989363E-03   2.81195059056687E-03   3.62458676496163E-03   6.07909246242156E-03
   1.15089406818438E-02   2.33875010837505E-02   7.43009372458844E-02   5.71935972741296E-02   2.92523225203422E-01
   2.70860938420131E-01   5.24408494856763E-02   1.02489797522269E-02   6.93008852989022E-03   1.27141058783771E-02
   1.25446859246764E-02   7.65485493220302E-03   1.15089406818438E-02   5.71935972741296E-02   1.65357413303325E-02
   4.94475141034301E-02   5.24408494856763E-02   2.35408842987226E-02   9.87666292260479E-03   1.59417743080073E-02
   5.40292253947272E-02   4.77772301321920E-02   1.25446859246764E-02   6.07909246242155E-03   1.65357413303325E-02
   3.85515764027797E-03   7.52126428989362E-03   1.02489797522269E-02   9.87666292260478E-03   9.82493167651366E-03
   1.93601713659449E-02   6.29006087043429E-02   5.40292253947269E-02   1.27141058783770E-02   3.62458676496163E-03
   3.85515764027797E-03   1.82813588722574E-03   2.81195059056687E-03   6.93008852989020E-03   1.59417743080073E-02
   1.93601713659448E-02   1.65393004355405E-02   1.93601713659448E-02   1.59417743080073E-02   6.93008852989020E-03
   2.81195059056687E-03   1.82813588722574E-03   1.77883336384245E-03   2.56810978799560E-03   5.20981155689719E-03
   1.08910768837921E-02   2.57056936041907E-02   4.46017224261087E-02   2.57056936041907E-02   1.08910768837921E-02
   5.20981155689719E-03   2.56810978799560E-03   1.77883336384245E-03   4.06615022190168E-03   2.63286176915898E-03
   5.79656028259054E-03   1.61993293692204E-02   2.49144480698519E-02   2.57056936041907E-02   1.69137743205571E-02
   1.59925556922291E-02   1.55428645517536E-02   9.25283808888909E-03   4.06615022190168E-03   1.93949950833811E-02
   5.67111230690116E-03   5.95562187751964E-03   1.37556547452220E-02   1.61993293692204E-02   1.08910768837921E-02
   1.59925556922291E-02   5.72130449225613E-02   8.87742442281153E-02   6.45911957490173E-02   1.93949950833811E-02
   7.77225770497269E-02   1.61944688703011E-02   6.44009874477752E-03   5.95562187751964E-03   5.79656028259053E-03
   5.20981155689719E-03   1.55428645517536E-02   8.87742442281154E-02   4.12917438346502E-01   4.31408561321261E-01
   7.77225770497269E-02   1.42487695518689E-01   5.08643330514378E-02   1.61944688703011E-02   5.67111230690115E-03
   2.63286176915898E-03   2.56810978799560E-03   9.25283808888911E-03   6.45911957490175E-02   4.31408561321262E-01
   4.97614180157885E-01   1.42487695518689E-01   1.86636812343869E-01   1.42487695518689E-01   7.77225770497269E-02
   1.93949950833811E-02   4.06615022190169E-03   1.77883336384245E-03   4.06615022190169E-03   1.93949950833812E-02
   7.77225770497271E-02   1.42487695518689E-01   1.86636812343869E-01   1.42487695518689E-01   4.97614180157886E-01
   4.31408561321261E-01   6.45911957490173E-02   9.25283808888910E-03   2.56810978799560E-03   2.63286176915898E-03
   5.67111230690117E-03   1.61944688703011E-02   5.08643330514377E-02   1.42487695518689E-01   7.77225770497270E-02
   4.31408561321261E-01   4.12917438346501E-01   8.87742442281152E-02   1.55428645517536E-02   5.20981155689719E-03
   5.79656028259055E-03   5.95562187751964E-03   6.44009874477752E-03   1.61944688703011E-02   7.77225770497270E-02
   1.93949950833812E-02   6.45911957490173E-02   8.87742442281152E-02   5.72130449225612E-02   1.59925556922290E-02
   1.08910768837921E-02   1.61993293692204E-02   1.37556547452220E-02   5.95562187751964E-03   5.67111230690116E-03
   1.93949950833812E-02   4.06615022190168E-03   9.25283808888909E-03   1.55428645517536E-02   1.59925556922290E-02
   1.69137743205571E-02   2.57056936041908E-02   2.49144480698519E-02   1.61993293692204E-02   5.79656028259054E-03
   2.63286176915898E-03   4.06615022190168E-03   1.77883336384245E-03   2.56810978799560E-03   5.20981155689719E-03
   1.08910768837921E-02   2.57056936041907E-02   4.46017224261087E-02   2.57056936041907E-02   1.08910768837921E-02
   5.20981155689719E-03   2.56810978799560E-03   1.77883336384245E-03   1.53305918110679E-03   2.21388161425010E-03
   4.60504105430543E-03   1.53945562935796E-02   1.23398514273171E-01   4.34857449730731E-01   1.23398514273170E-01
   1.53945562935796E-02   4.60504105430543E-03   2.21388161425010E-03   1.53305918110679E-03   3.28620031006467E-03
   1.97935783833870E-03   3.20501452895417E-03   1.02615805794621E-02   5.01015818211492E-02   1.23398514273171E-01
   5.25098523070921E-02   2.19541496429465E-02   1.65993494301916E-02   7.88184601905062E-03   3.28620031006467E-03
   1.34414564383854E-02   4.85862277953192E-03   3.38607312552521E-03   5.40205670937838E-03   1.02615805794621E-02
   1.53945562935796E-02   2.19541496429465E-02   8.85815032167261E-02   8.82262476592031E-02   3.81544918410764E-02
   1.34414564383854E-02   5.35622269918945E-02   1.88308901200954E-02   6.28818157893186E-03   3.38607312552521E-03
   3.20501452895417E-03   4.60504105430543E-03   1.65993494301916E-02   8.82262476592031E-02   1.79417787534206E-01
   1.57571957863060E-01   5.35622269918945E-02   1.94482044371668E-01   8.52981675182243E-02   1.88308901200954E-02
   4.85862277953191E-03   1.97935783833870E-03   2.21388161425010E-03   7.88184601905063E-03   3.81544918410765E-02
   1.57571957863060E-01   2.26531462952585E-01   1.94482044371668E-01   8.62572543793673E+00   1.94482044371668E-01
   5.35622269918945E-02   1.34414564383854E-02   3.28620031006468E-03   1.53305918110679E-03   3.28620031006468E-03
   1.34414564383854E-02   5.35622269918946E-02   1.94482044371668E-01   8.62572543793673E+00   1.94482044371668E-01
   2.26531462952585E-01   1.57571957863060E-01   3.81544918410764E-02   7.88184601905063E-03   2.21388161425010E-03
   1.97935783833871E-03   4.85862277953193E-03   1.88308901200953E-02   8.52981675182243E-02   1.94482044371668E-01
   5.35622269918945E-02   1.57571957863060E-01   1.79417787534206E-01   8.82262476592032E-02   1.65993494301916E-02
   4.60504105430543E-03   3.20501452895417E-03   3.38607312552521E-03   6.28818157893185E-03   1.88308901200953E-02
   5.35622269918945E-02   1.34414564383854E-02   3.81544918410764E-02   8.82262476592029E-02   8.85815032167259E-02
   2.19541496429465E-02   1.53945562935796E-02   1.02615805794621E-02   5.40205670937837E-03   3.38607312552521E-03
   4.85862277953192E-03   1.34414564383854E-02   3.28620031006467E-03   7.88184601905062E-03   1.65993494301916E-02
   2.19541496429464E-02   5.25098523070922E-02   1.23398514273171E-01   5.01015818211490E-02   1.02615805794620E-02
   3.20501452895417E-03   1.97935783833870E-03   3.28620031006467E-03   1.53305918110679E-03   2.21388161425010E-03
   4.60504105430543E-03   1.53945562935796E-02   1.23398514273171E-01   4.34857449730731E-01   1.23398514273170E-01
   1.53945562935796E-02   4.60504105430543E-03   2.21388161425010E-03   1.53305918110679E-03   1.20002560383214E-03
   1.76657484595488E-03   4.27250384277689E-03   2.26713224263203E-02   3.19430415951652E-01   1.61676956573249E+02
   3.19430415951651E-01   2.26713224263201E-02   4.27250384277689E-03   1.76657484595488E-03   1.20002560383214E-03
   2.21373427011346E-03   1.77002469479900E-03   3.22251315641085E-03   1.32704908705900E-02   1.00357867898952E-01
   3.19430415951652E-01   1.02356347667465E-01   1.97141566135278E-02   9.99413059624406E-03   4.66358714764816E-03
   2.21373427011346E-03   7.30907294530716E-03   4.15492083926294E-03   3.56536373034479E-03   5.49291563503376E-03
   1.32704908705900E-02   2.26713224263202E-02   1.97141566135278E-02   3.18534282008683E-02   3.07865940350614E-02
   1.48637730948995E-02   7.30907294530716E-03   3.06999668518297E-02   1.63895086672511E-02   6.44420875378744E-03
   3.56536373034479E-03   3.22251315641085E-03   4.27250384277688E-03   9.99413059624405E-03   3.07865940350614E-02
   4.38633246741850E-02   3.95135773179716E-02   3.06999668518297E-02   1.52935923203525E-01   7.42211023519519E-02
   1.63895086672511E-02   4.15492083926294E-03   1.77002469479900E-03   1.76657484595488E-03   4.66358714764816E-03
   1.48637730948995E-02   3.95135773179716E-02   9.43664451208093E-02   1.52935923203525E-01   3.42103056018904E-01
   1.52935923203524E-01   3.06999668518297E-02   7.30907294530715E-03   2.21373427011346E-03   1.20002560383214E-03
   2.21373427011346E-03   7.30907294530718E-03   3.06999668518297E-02   1.52935923203524E-01   3.42103056018904E-01
   1.52935923203524E-01   9.43664451208092E-02   3.95135773179716E-02   1.48637730948995E-02   4.66358714764817E-03
   1.76657484595488E-03   1.77002469479900E-03   4.15492083926295E-03   1.63895086672510E-02   7.42211023519517E-02
   1.52935923203524E-01   3.06999668518296E-02   3.95135773179715E-02   4.38633246741850E-02   3.07865940350614E-02
   9.99413059624404E-03   4.27250384277689E-03   3.22251315641085E-03   3.56536373034480E-03   6.44420875378743E-03
   1.63895086672510E-02   3.06999668518296E-02   7.30907294530716E-03   1.48637730948995E-02   3.07865940350613E-02
   3.18534282008683E-02   1.97141566135278E-02   2.26713224263202E-02   1.32704908705899E-02   5.49291563503374E-03
   3.56536373034480E-03   4.15492083926294E-03   7.30907294530716E-03   2.21373427011346E-03   4.66358714764816E-03
   9.99413059624405E-03   1.97141566135278E-02   1.02356347667465E-01   3.19430415951651E-01   1.00357867898951E-01
   1.32704908705899E-02   3.22251315641085E-03   1.77002469479900E-03   2.21373427011346E-03   1.20002560383214E-03
   1.76657484595488E-03   4.27250384277689E-03   2.26713224263203E-02   3.19430415951652E-01   1.61676956573249E+02
   3.19430415951651E-01   2.26713224263201E-02   4.27250384277689E-03   1.76657484595488E-03   1.20002560383214E-03
   1.04515222797972E-03   1.65405789167375E-03   4.63614229111972E-03   2.25434486765692E-02   1.76955958104364E-01
   6.00274162789108E-01   1.76955958104364E-01   2.25434486765691E-02   4.63614229111972E-03   1.65405789167375E-03
   1.04515222797972E-03   1.65405789167375E-03   2.44476961520932E-03   5.72348277211837E-03   1.71912530911987E-02
   7.59188422515815E-02   1.76955958104364E-01   7.38944902895561E-02   1.53188402570239E-02   5.15386653392263E-03
   2.44476961520933E-03   1.65405789167375E-03   4.63614229111972E-03   5.15386653392262E-03   8.37067616650008E-03
   1.17185595046337E-02   1.71912530911986E-02   2.25434486765692E-02   1.53188402570239E-02   1.03757969535122E-02
   8.37067616650009E-03   5.72348277211838E-03   4.63614229111972E-03   2.25434486765692E-02   1.53188402570240E-02
   1.03757969535122E-02   8.37067616650007E-03   5.72348277211837E-03   4.63614229111971E-03   5.15386653392262E-03
   8.37067616650009E-03   1.17185595046337E-02   1.71912530911987E-02   2.25434486765692E-02   1.76955958104364E-01
   7.38944902895562E-02   1.53188402570239E-02   5.15386653392262E-03   2.44476961520932E-03   1.65405789167375E-03
   2.44476961520933E-03   5.72348277211838E-03   1.71912530911987E-02   7.59188422515815E-02   1.76955958104364E-01
   6.00274162789108E-01   1.76955958104364E-01   2.25434486765691E-02   4.63614229111971E-03   1.65405789167375E-03
   1.04515222797972E-03   1.65405789167375E-03   4.63614229111972E-03   2.25434486765692E-02   1.76955958104364E-01
   6.00274162789108E-01   1.76955958104364E-01   7.59188422515813E-02   1.71912530911986E-02   5.72348277211837E-03
   2.44476961520933E-03   1.65405789167375E-03   2.44476961520933E-03   5.15386653392263E-03   1.53188402570239E-02
   7.38944902895561E-02   1.76955958104364E-01   2.25434486765691E-02   1.71912530911986E-02   1.17185595046337E-02
   8.37067616650008E-03   5.15386653392262E-03   4.63614229111972E-03   5.72348277211838E-03   8.37067616650009E-03
   1.03757969535122E-02   1.53188402570239E-02   2.25434486765691E-02   4.63614229111972E-03   5.72348277211837E-03
   8.37067616650008E-03   1.03757969535122E-02   1.53188402570239E-02   2.25434486765692E-02   1.71912530911986E-02
   1.17185595046337E-02   8.37067616650009E-03   5.15386653392263E-03   4.63614229111972E-03   1.65405789167375E-03
   2.44476961520933E-03   5.15386653392263E-03   1.53188402570239E-02   7.38944902895564E-02   1.76955958104364E-01
   7.59188422515811E-02   1.71912530911986E-02   5.72348277211838E-03   2.44476961520933E-03   1.65405789167375E-03
   1.04515222797972E-03   1.65405789167375E-03   4.63614229111972E-03   2.25434486765692E-02   1.76955958104364E-01
   6.00274162789108E-01   1.76955958104364E-01   2.25434486765691E-02   4.63614229111972E-03   1.65405789167375E-03
   1.04515222797972E-03   1.20002560383214E-03   2.21373427011346E-03   7.30907294530716E-03   3.06999668518297E-02
   1.52935923203524E-01   3.42103056018903E-01   1.52935923203524E-01   3.06999668518296E-02   7.30907294530716E-03
   2.21373427011346E-03   1.20002560383214E-03   1.76657484595488E-03   4.66358714764815E-03   1.48637730948995E-02
   3.95135773179715E-02   9.43664451208092E-02   1.52935923203524E-01   7.42211023519517E-02   1.63895086672510E-02
   4.15492083926295E-03   1.77002469479900E-03   1.76657484595488E-03   4.27250384277689E-03   9.99413059624405E-03
   3.07865940350613E-02   4.38633246741849E-02   3.95135773179715E-02   3.06999668518296E-02   1.63895086672510E-02
   6.44420875378743E-03   3.56536373034480E-03   3.22251315641086E-03   4.27250384277689E-03   2.26713224263203E-02
   1.97141566135278E-02   3.18534282008683E-02   3.07865940350613E-02   1.48637730948995E-02   7.30907294530716E-03
   4.15492083926294E-03   3.56536373034479E-03   5.49291563503376E-03   1.32704908705900E-02   2.26713224263203E-02
   3.19430415951652E-01   1.02356347667465E-01   1.97141566135277E-02   9.99413059624405E-03   4.66358714764816E-03
   2.21373427011346E-03   1.77002469479900E-03   3.22251315641086E-03   1.32704908705899E-02   1.00357867898952E-01
   3.19430415951652E-01   1.61676956573251E+02   3.19430415951652E-01   2.26713224263201E-02   4.27250384277689E-03
   1.76657484595488E-03   1.20002560383214E-03   1.76657484595488E-03   4.27250384277689E-03   2.26713224263202E-02
   3.19430415951652E-01   1.61676956573251E+02   3.19430415951651E-01   1.00357867898951E-01   1.32704908705899E-02
   3.22251315641085E-03   1.77002469479900E-03   2.21373427011346E-03   4.66358714764815E-03   9.99413059624405E-03
   1.97141566135278E-02   1.02356347667465E-01   3.19430415951651E-01   2.26713224263202E-02   1.32704908705899E-02
   5.49291563503375E-03   3.56536373034480E-03   4.15492083926295E-03   7.30907294530717E-03   1.48637730948995E-02
   3.07865940350614E-02   3.18534282008683E-02   1.97141566135278E-02   2.26713224263202E-02   4.27250384277689E-03
   3.22251315641085E-03   3.56536373034480E-03   6.44420875378743E-03   1.63895086672510E-02   3.06999668518296E-02
   3.95135773179715E-02   4.38633246741849E-02   3.07865940350613E-02   9.99413059624406E-03   4.27250384277689E-03
   1.76657484595488E-03   1.77002469479900E-03   4.15492083926295E-03   1.63895086672510E-02   7.42211023519517E-02
   1.52935923203524E-01   9.43664451208089E-02   3.95135773179714E-02   1.48637730948995E-02   4.66358714764816E-03
   1.76657484595488E-03   1.20002560383214E-03   2.21373427011346E-03   7.30907294530716E-03   3.06999668518297E-02
   1.52935923203524E-01   3.42103056018903E-01   1.52935923203524E-01   3.06999668518296E-02   7.30907294530716E-03
   2.21373427011346E-03   1.20002560383214E-03   1.53305918110679E-03   3.28620031006467E-03   1.34414564383854E-02
   5.35622269918946E-02   1.94482044371668E-01   8.62572543793674E+00   1.94482044371668E-01   5.35622269918945E-02
   1.34414564383854E-02   3.28620031006468E-03   1.53305918110679E-03   2.21388161425010E-03   7.88184601905061E-03
   3.81544918410764E-02   1.57571957863060E-01   2.26531462952585E-01   1.94482044371668E-01   8.52981675182243E-02
   1.88308901200953E-02   4.85862277953193E-03   1.97935783833871E-03   2.21388161425010E-03   4.60504105430543E-03
   1.65993494301916E-02   8.82262476592031E-02   1.79417787534206E-01   1.57571957863060E-01   5.35622269918946E-02
   1.88308901200953E-02   6.28818157893185E-03   3.38607312552521E-03   3.20501452895417E-03   4.60504105430543E-03
   1.53945562935796E-02   2.19541496429465E-02   8.85815032167259E-02   8.82262476592030E-02   3.81544918410764E-02
   1.34414564383854E-02   4.85862277953192E-03   3.38607312552521E-03   5.40205670937838E-03   1.02615805794621E-02
   1.53945562935796E-02   1.23398514273171E-01   5.25098523070922E-02   2.19541496429465E-02   1.65993494301916E-02
   7.88184601905063E-03   3.28620031006468E-03   1.97935783833870E-03   3.20501452895417E-03   1.02615805794621E-02
   5.01015818211492E-02   1.23398514273171E-01   4.34857449730731E-01   1.23398514273171E-01   1.53945562935795E-02
   4.60504105430543E-03   2.21388161425011E-03   1.53305918110679E-03   2.21388161425010E-03   4.60504105430543E-03
   1.53945562935796E-02   1.23398514273171E-01   4.34857449730731E-01   1.23398514273170E-01   5.01015818211491E-02
   1.02615805794621E-02   3.20501452895416E-03   1.97935783833870E-03   3.28620031006467E-03   7.88184601905061E-03
   1.65993494301916E-02   2.19541496429465E-02   5.25098523070921E-02   1.23398514273170E-01   1.53945562935796E-02
   1.02615805794621E-02   5.40205670937838E-03   3.38607312552521E-03   4.85862277953192E-03   1.34414564383854E-02
   3.81544918410765E-02   8.82262476592034E-02   8.85815032167261E-02   2.19541496429465E-02   1.53945562935796E-02
   4.60504105430543E-03   3.20501452895417E-03   3.38607312552521E-03   6.28818157893185E-03   1.88308901200953E-02
   5.35622269918946E-02   1.57571957863060E-01   1.79417787534206E-01   8.82262476592033E-02   1.65993494301917E-02
   4.60504105430543E-03   2.21388161425010E-03   1.97935783833870E-03   4.85862277953192E-03   1.88308901200954E-02
   8.52981675182243E-02   1.94482044371668E-01   2.26531462952585E-01   1.57571957863060E-01   3.81544918410765E-02
   7.88184601905064E-03   2.21388161425010E-03   1.53305918110679E-03   3.28620031006467E-03   1.34414564383854E-02
   5.35622269918946E-02   1.94482044371668E-01   8.62572543793674E+00   1.94482044371668E-01   5.35622269918945E-02
   1.34414564383854E-02   3.28620031006468E-03   1.53305918110679E-03   1.77883336384245E-03   4.06615022190168E-03
   1.93949950833811E-02   7.77225770497270E-02   1.42487695518689E-01   1.86636812343869E-01   1.42487695518689E-01
   7.77225770497271E-02   1.93949950833812E-02   4.06615022190169E-03   1.77883336384245E-03   2.56810978799560E-03
   9.25283808888909E-03   6.45911957490172E-02   4.31408561321262E-01   4.97614180157886E-01   1.42487695518689E-01
   5.08643330514377E-02   1.61944688703011E-02   5.67111230690116E-03   2.63286176915898E-03   2.56810978799560E-03
   5.20981155689720E-03   1.55428645517536E-02   8.87742442281152E-02   4.12917438346501E-01   4.31408561321262E-01
   7.77225770497271E-02   1.61944688703011E-02   6.44009874477752E-03   5.95562187751964E-03   5.79656028259054E-03
   5.20981155689720E-03   1.08910768837921E-02   1.59925556922291E-02   5.72130449225613E-02   8.87742442281152E-02
   6.45911957490172E-02   1.93949950833812E-02   5.67111230690116E-03   5.95562187751964E-03   1.37556547452221E-02
   1.61993293692204E-02   1.08910768837921E-02   2.57056936041907E-02   1.69137743205571E-02   1.59925556922291E-02
   1.55428645517536E-02   9.25283808888910E-03   4.06615022190169E-03   2.63286176915898E-03   5.79656028259054E-03
   1.61993293692204E-02   2.49144480698519E-02   2.57056936041907E-02   4.46017224261087E-02   2.57056936041907E-02
   1.08910768837921E-02   5.20981155689719E-03   2.56810978799560E-03   1.77883336384245E-03   2.56810978799560E-03
   5.20981155689719E-03   1.08910768837921E-02   2.57056936041907E-02   4.46017224261087E-02   2.57056936041907E-02
   2.49144480698519E-02   1.61993293692204E-02   5.79656028259054E-03   2.63286176915898E-03   4.06615022190168E-03
   9.25283808888913E-03   1.55428645517536E-02   1.59925556922291E-02   1.69137743205571E-02   2.57056936041907E-02
   1.08910768837921E-02   1.61993293692204E-02   1.37556547452221E-02   5.95562187751964E-03   5.67111230690116E-03
   1.93949950833812E-02   6.45911957490174E-02   8.87742442281153E-02   5.72130449225613E-02   1.59925556922291E-02
   1.08910768837921E-02   5.20981155689719E-03   5.79656028259053E-03   5.95562187751964E-03   6.44009874477752E-03
   1.61944688703011E-02   7.77225770497273E-02   4.31408561321263E-01   4.12917438346501E-01   8.87742442281153E-02
   1.55428645517536E-02   5.20981155689719E-03   2.56810978799560E-03   2.63286176915898E-03   5.67111230690116E-03
   1.61944688703011E-02   5.08643330514377E-02   1.42487695518689E-01   4.97614180157886E-01   4.31408561321260E-01
   6.45911957490173E-02   9.25283808888912E-03   2.56810978799560E-03   1.77883336384245E-03   4.06615022190168E-03
   1.93949950833811E-02   7.77225770497270E-02   1.42487695518689E-01   1.86636812343869E-01   1.42487695518689E-01
   7.77225770497271E-02   1.93949950833812E-02   4.06615022190169E-03   1.77883336384245E-03   1.82813588722574E-03
   3.85515764027797E-03   1.65357413303324E-02   5.71935972741296E-02   7.43009372458845E-02   6.08995979212057E-02
   7.43009372458845E-02   5.71935972741296E-02   1.65357413303325E-02   3.85515764027798E-03   1.82813588722574E-03
   2.81195059056687E-03   7.52126428989362E-03   4.94475141034301E-02   2.92523225203423E-01   3.26165214014098E-01
   7.43009372458842E-02   2.33875010837505E-02   1.15089406818438E-02   6.07909246242155E-03   3.62458676496163E-03
   2.81195059056687E-03   6.93008852989020E-03   1.02489797522269E-02   5.24408494856763E-02   2.70860938420131E-01
   2.92523225203423E-01   5.71935972741294E-02   1.15089406818438E-02   7.65485493220301E-03   1.25446859246764E-02
   1.27141058783770E-02   6.93008852989020E-03   1.59417743080073E-02   9.87666292260479E-03   2.35408842987226E-02
   5.24408494856763E-02   4.94475141034300E-02   1.65357413303324E-02   6.07909246242155E-03   1.25446859246765E-02
   4.77772301321922E-02   5.40292253947272E-02   1.59417743080073E-02   1.93601713659448E-02   9.82493167651367E-03
   9.87666292260479E-03   1.02489797522269E-02   7.52126428989361E-03   3.85515764027796E-03   3.62458676496163E-03
   1.27141058783771E-02   5.40292253947272E-02   6.29006087043429E-02   1.93601713659448E-02   1.65393004355405E-02
   1.93601713659449E-02   1.59417743080073E-02   6.93008852989020E-03   2.81195059056687E-03   1.82813588722574E-03
   2.81195059056687E-03   6.93008852989021E-03   1.59417743080072E-02   1.93601713659448E-02   1.65393004355405E-02
   1.93601713659448E-02   6.29006087043429E-02   5.40292253947273E-02   1.27141058783770E-02   3.62458676496163E-03
   3.85515764027798E-03   7.52126428989364E-03   1.02489797522269E-02   9.87666292260480E-03   9.82493167651366E-03
   1.93601713659448E-02   1.59417743080072E-02   5.40292253947270E-02   4.77772301321920E-02   1.25446859246764E-02
   6.07909246242156E-03   1.65357413303326E-02   4.94475141034304E-02   5.24408494856765E-02   2.35408842987226E-02
   9.87666292260480E-03   1.59417743080072E-02   6.93008852989019E-03   1.27141058783770E-02   1.25446859246764E-02
   7.65485493220300E-03   1.15089406818438E-02   5.71935972741299E-02   2.92523225203424E-01   2.70860938420130E-01
   5.24408494856763E-02   1.02489797522269E-02   6.93008852989019E-03   2.81195059056687E-03   3.62458676496163E-03
   6.07909246242155E-03   1.15089406818438E-02   2.33875010837505E-02   7.43009372458848E-02   3.26165214014099E-01
   2.92523225203422E-01   4.94475141034301E-02   7.52126428989364E-03   2.81195059056687E-03   1.82813588722574E-03
   3.85515764027797E-03   1.65357413303324E-02   5.71935972741296E-02   7.43009372458845E-02   6.08995979212057E-02