LAMMPS data file created by critic2. (experimental)

       16 atoms
        4 atom types

      0.0000000000       5.5650000000  xlo xhi
      0.0000000000       5.5650000000  ylo yhi
      0.0000000000       4.6840000000  zlo zhi
      0.0000000000       0.0000000000       0.0000000000  xy xz yz

Masses

  1    12.0107
  2    15.9994
  3    14.0067
  4     1.0079

Atoms

      1   1  0.0     0.00000000      2.78250000      1.52698400
      2   1  0.0     2.78250000      0.00000000      3.15701600
      3   2  0.0     0.00000000      2.78250000      2.78838520
      4   2  0.0     2.78250000      0.00000000      1.89561480
      5   3  0.0     0.81193350      3.59443350      0.82719440
      6   3  0.0     1.97056650      0.81193350      3.85680560
      7   3  0.0     4.75306650      1.97056650      0.82719440
      8   3  0.0     3.59443350      4.75306650      3.85680560
      9   4  0.0     1.43298750      4.21548750      1.32416680
     10   4  0.0     1.34951250      1.43298750      3.35983320
     11   4  0.0     4.13201250      1.34951250      1.32416680
     12   4  0.0     4.21548750      4.13201250      3.35983320
     13   4  0.0     0.80191650      3.58441650      4.50600800
     14   4  0.0     1.98058350      0.80191650      0.17799200
     15   4  0.0     4.76308350      1.98058350      4.50600800
     16   4  0.0     3.58441650      4.76308350      0.17799200
